-9.456371365740000329e+03
-9.456370443579999119e+03
-9.456361224669999501e+03
-9.456339679790000446e+03
-9.456313373150000189e+03
-9.456279972950000229e+03
-9.456252889100000175e+03
-9.456175213549999171e+03
-9.456118169819999821e+03
-9.456079745909999474e+03
-9.456013887999999497e+03
-9.449273128160000851e+03
-9.449401944540000841e+03
-9.449619515610000235e+03
-9.449902485790000355e+03
-9.450074205839999195e+03
-9.450332588290000785e+03
-9.450507317010000406e+03
-9.450617653859999336e+03
-9.450700449530000697e+03
-9.450854077289999623e+03
-9.450925078050000593e+03
-9.451695142169999599e+03
-9.451736421379999229e+03
-9.451830417170000146e+03
-9.451817196500000136e+03
-9.451921072260000074e+03
-9.451942683170000237e+03
-9.451971437399999559e+03
-9.451898506120000093e+03
-9.452006345940000756e+03
-9.452019018409999262e+03
-9.452053801359999852e+03
-9.444730526200000895e+03
-9.444952860409999630e+03
-9.445180060259999664e+03
-9.445502396440000666e+03
-9.445627184209999541e+03
-9.445805499179999970e+03
-9.446167117560000406e+03
-9.446361235230000602e+03
-9.446400358150000102e+03
-9.446620003120000547e+03
-9.446883848060000673e+03
-9.451064830389999770e+03
-9.451149912069999118e+03
-9.451277465850000226e+03
-9.451497963210000307e+03
-9.451626776150000296e+03
-9.451698334950000572e+03
-9.451819536549999611e+03
-9.451941191940000863e+03
-9.451906762389999130e+03
-9.452031295259999752e+03
-9.452052005530000315e+03
-9.451210042049999174e+03
-9.451270117739999478e+03
-9.451398685359999945e+03
-9.451556460760000846e+03
-9.451691484869999840e+03
-9.451865535610000734e+03
-9.451934432789999846e+03
-9.451941638059999605e+03
-9.452012935180000568e+03
-9.452101433120000365e+03
-9.452096611889999622e+03
-9.453107356300000902e+03
-9.453141267279999738e+03
-9.453146444519999932e+03
-9.453157618789999106e+03
-9.453157436710000184e+03
-9.453179161629999726e+03
-9.453212332859999151e+03
-9.453133901429999241e+03
-9.453128439269999944e+03
-9.453136937699999180e+03
-9.453143019799999820e+03
-9.444207462149999628e+03
-9.444464351700000407e+03
-9.444812210719999712e+03
-9.445104673140000159e+03
-9.445365796980000596e+03
-9.445552266169999712e+03
-9.445901789899999130e+03
-9.446060414920000767e+03
-9.446276392780000606e+03
-9.446507656649999262e+03
-9.446801474780000717e+03
-9.448571979529999226e+03
-9.448766295310000714e+03
-9.449036584670000593e+03
-9.449449359660000482e+03
-9.449664408919999914e+03
-9.449815389920000598e+03
-9.450074514320000162e+03
-9.450324246869999115e+03
-9.450332078479999836e+03
-9.450560808590000306e+03
-9.450627462300000843e+03
-9.445195796539999719e+03
-9.445444475790000070e+03
-9.445778620859999137e+03
-9.446322871140000643e+03
-9.446601851979999992e+03
-9.446874616999999489e+03
-9.447216126710000026e+03
-9.447564004760000898e+03
-9.447606089250000878e+03
-9.447913358719999451e+03
-9.448059155970000575e+03
-9.439036686600000394e+03
-9.439460431310000786e+03
-9.440106933459999709e+03
-9.440982752329999130e+03
-9.441469367839999904e+03
-9.442074523600000248e+03
-9.442652833849999297e+03
-9.443150153680000585e+03
-9.443356340930000442e+03
-9.443866533610000261e+03
-9.444165994689999934e+03
-9.456835171149999951e+03
-9.456834311770000568e+03
-9.456825607950000631e+03
-9.456805510640000648e+03
-9.456780885599999237e+03
-9.456749371149999206e+03
-9.456723603759999605e+03
-9.456650862270000289e+03
-9.456596629060000851e+03
-9.456559830879999936e+03
-9.456497848959999828e+03
-9.452407597839999653e+03
-9.452446798200000558e+03
-9.452503027630000361e+03
-9.452496694760000537e+03
-9.452536661320000348e+03
-9.452524212460000854e+03
-9.452553133299999899e+03
-9.452514655950000815e+03
-9.452564218940000501e+03
-9.452546258340000350e+03
-9.452600668339999174e+03
-9.453313736950000020e+03
-9.453337123010000141e+03
-9.453370928880000065e+03
-9.453334199999999328e+03
-9.453328902519999247e+03
-9.453319038150000779e+03
-9.453343206769999597e+03
-9.453244780000000901e+03
-9.453248841270000412e+03
-9.453236270030000014e+03
-9.453243572470000800e+03
-9.448139967049999541e+03
-9.448249579190000077e+03
-9.448387921429999551e+03
-9.448497595590000856e+03
-9.448556788170000800e+03
-9.448580529839999144e+03
-9.448746867750000092e+03
-9.448810715629999322e+03
-9.448865710770000078e+03
-9.448962082710000686e+03
-9.449098903019999852e+03
-9.450781925789999150e+03
-9.450829552709999916e+03
-9.450959972310000012e+03
-9.451072496500000852e+03
-9.451176547229999414e+03
-9.451280506270000842e+03
-9.451302898379999533e+03
-9.451339291599999342e+03
-9.451415230810000139e+03
-9.451468677740000203e+03
-9.451449363089999679e+03
-9.449799789849999797e+03
-9.449923685390000173e+03
-9.450091142260000197e+03
-9.450202109339999879e+03
-9.450284964110000146e+03
-9.450331345489999876e+03
-9.450505872089999684e+03
-9.450569062979999217e+03
-9.450661691420000352e+03
-9.450754931949999445e+03
-9.450919383200000084e+03
-9.452081006070000512e+03
-9.452118131240000366e+03
-9.452217236480000793e+03
-9.452323089150000669e+03
-9.452409589880000567e+03
-9.452525039629999810e+03
-9.452548612079999657e+03
-9.452574057260000700e+03
-9.452632707869999649e+03
-9.452666420909999943e+03
-9.452667265410000255e+03
-9.444898341849999269e+03
-9.445090680010000142e+03
-9.445422454949999519e+03
-9.445593324819999907e+03
-9.445845802080000794e+03
-9.446027020019999327e+03
-9.446273054889999912e+03
-9.446385913800000708e+03
-9.446682055260000197e+03
-9.446785773580000750e+03
-9.447054342289999113e+03
-9.452232804089999263e+03
-9.452311946210000315e+03
-9.452404220520000308e+03
-9.452552986160000728e+03
-9.452602637820000382e+03
-9.452635552269999607e+03
-9.452745646409999608e+03
-9.452844742600000245e+03
-9.452799894409999979e+03
-9.452879641749999792e+03
-9.452956513029999769e+03
-9.453270619259999876e+03
-9.453286086509999222e+03
-9.453366260410000905e+03
-9.453396447279999848e+03
-9.453464394619999439e+03
-9.453551918499999374e+03
-9.453543842439999935e+03
-9.453502998690000823e+03
-9.453559186300000874e+03
-9.453539219340000272e+03
-9.453508186580000256e+03
-9.452607718119999845e+03
-9.452637629849999939e+03
-9.452689324000000852e+03
-9.452675648340000407e+03
-9.452718979380000746e+03
-9.452748752409999724e+03
-9.452782608629999231e+03
-9.452740887429999930e+03
-9.452792441030000191e+03
-9.452752007519999097e+03
-9.452809778990000268e+03
-9.456396770440000182e+03
-9.456395969900000637e+03
-9.456387750850000884e+03
-9.456369000869999581e+03
-9.456345943559999796e+03
-9.456316259350000109e+03
-9.456291784999999436e+03
-9.456223739690000002e+03
-9.456172169740000754e+03
-9.456137026759999571e+03
-9.456078768620000119e+03
-9.454416936190000342e+03
-9.454448393329999817e+03
-9.454465138100000331e+03
-9.454524443880000035e+03
-9.454495966869999393e+03
-9.454469214259999717e+03
-9.454507990960000825e+03
-9.454512761840000167e+03
-9.454428696819999459e+03
-9.454440286060000290e+03
-9.454398924760000227e+03
-9.453513181460000851e+03
-9.453538033400000131e+03
-9.453582574480000403e+03
-9.453627180040000894e+03
-9.453672514960000626e+03
-9.453759232219999831e+03
-9.453774595959999715e+03
-9.453725330229999599e+03
-9.453742090440000538e+03
-9.453749355219999416e+03
-9.453725634379999974e+03
-9.447912431599999763e+03
-9.448103069130000222e+03
-9.448298615229999996e+03
-9.448612001019999298e+03
-9.448713525799999843e+03
-9.448916771759999392e+03
-9.449220625969999674e+03
-9.449388058239999737e+03
-9.449410534950000510e+03
-9.449640915280000627e+03
-9.449871749550000459e+03
-9.449206474910000907e+03
-9.449248261860000639e+03
-9.449337209499999517e+03
-9.449344624990000739e+03
-9.449385851909999474e+03
-9.449408738509999239e+03
-9.449430078830000639e+03
-9.449408977439999944e+03
-9.449484965480000028e+03
-9.449435387920000721e+03
-9.449433167679999315e+03
-9.449465187719999449e+03
-9.449641559760000746e+03
-9.449952489319999586e+03
-9.450271524640000280e+03
-9.450458054909999191e+03
-9.450764609550000387e+03
-9.450960605579999537e+03
-9.451104805510000006e+03
-9.451197192559999166e+03
-9.451336682700000893e+03
-9.451425088500000129e+03
-9.449931442080000124e+03
-9.449992091179999989e+03
-9.450118550170000162e+03
-9.450245488290000139e+03
-9.450353567680000197e+03
-9.450541587159999835e+03
-9.450595505909999702e+03
-9.450604589509999641e+03
-9.450697591779999129e+03
-9.450745937390000108e+03
-9.450749609180000334e+03
-9.454940953859999354e+03
-9.454941102619999583e+03
-9.454951437010000518e+03
-9.454918165240000235e+03
-9.454921429340000032e+03
-9.454936003239999991e+03
-9.454899260520000098e+03
-9.454835707980000734e+03
-9.454841064800000822e+03
-9.454786448929999096e+03
-9.454742088670000157e+03
-9.444837983089999398e+03
-9.445022435380000388e+03
-9.445316003170000840e+03
-9.445473845979999169e+03
-9.445700470330000826e+03
-9.445875283209999907e+03
-9.446086268850000124e+03
-9.446167531209999652e+03
-9.446454918719999114e+03
-9.446590946230000554e+03
-9.446819033750000017e+03
-9.452867510309999489e+03
-9.452897011420000126e+03
-9.452956521230000362e+03
-9.453022655389999272e+03
-9.453039719320000586e+03
-9.453131411919999664e+03
-9.453131250390000787e+03
-9.453124455389999639e+03
-9.453133950380000897e+03
-9.453123579099999915e+03
-9.453083609909999723e+03
-9.452906879860000117e+03
-9.452950509379999858e+03
-9.452993322669999543e+03
-9.453003406969999560e+03
-9.453016840099999172e+03
-9.453057825379999485e+03
-9.453075551179999820e+03
-9.453040319699999600e+03
-9.453073808749999444e+03
-9.453087877449999723e+03
-9.453150994269999501e+03
