                                                                                     
                             WELCOME TO ABACUS v3.0                                  
                                                                                     
               'Atomic-orbital Based Ab-initio Computation at UStc'                  
                                                                                     
                     Website: http://abacus.ustc.edu.cn/                             
                                                                                     
    Version: Parallel, in development
    Processor Number is 16
    Start Time is Mon May 22 14:16:29 2023
                                                                                     
 ------------------------------------------------------------------------------------

 READING GENERAL INFORMATION
                           global_out_dir = OUT.ABACUS/
                           global_in_card = INPUT
                               pseudo_dir = 
                              orbital_dir = 
                                    DRANK = 1
                                    DSIZE = 16
                                   DCOLOR = 1
                                    GRANK = 1
                                    GSIZE = 1
 The esolver type has been set to : ksdft_lcao




 >>>>>>>>>>>>>>>>>>>>>>>>>>>>>>>>>>>>>>>>>>>>>>>>>>>>>>>>>>>>>>>>>>>>>>
 |                                                                    |
 | Reading atom information in unitcell:                              |
 | From the input file and the structure file we know the number of   |
 | different elments in this unitcell, then we list the detail        |
 | information for each element, especially the zeta and polar atomic |
 | orbital number for each element. The total atom number is counted. |
 | We calculate the nearest atom distance for each atom and show the  |
 | Cartesian and Direct coordinates for each atom. We list the file   |
 | address for atomic orbitals. The volume and the lattice vectors    |
 | in real and reciprocal space is also shown.                        |
 |                                                                    |
 <<<<<<<<<<<<<<<<<<<<<<<<<<<<<<<<<<<<<<<<<<<<<<<<<<<<<<<<<<<<<<<<<<<<<<




 READING UNITCELL INFORMATION
                                    ntype = 2
                 atom label for species 1 = Si
                 atom label for species 2 = C
                  lattice constant (Bohr) = 1.88973
              lattice constant (Angstrom) = 1

 READING ATOM TYPE 1
                               atom label = Si
                      L=0, number of zeta = 3
                      L=1, number of zeta = 3
                      L=2, number of zeta = 2
             number of atom for this type = 36
                      start magnetization = FALSE
                      start magnetization = FALSE
                      start magnetization = FALSE
                      start magnetization = FALSE
                      start magnetization = FALSE
                      start magnetization = FALSE
                      start magnetization = FALSE
                      start magnetization = FALSE
                      start magnetization = FALSE
                      start magnetization = FALSE
                      start magnetization = FALSE
                      start magnetization = FALSE
                      start magnetization = FALSE
                      start magnetization = FALSE
                      start magnetization = FALSE
                      start magnetization = FALSE
                      start magnetization = FALSE
                      start magnetization = FALSE
                      start magnetization = FALSE
                      start magnetization = FALSE
                      start magnetization = FALSE
                      start magnetization = FALSE
                      start magnetization = FALSE
                      start magnetization = FALSE
                      start magnetization = FALSE
                      start magnetization = FALSE
                      start magnetization = FALSE
                      start magnetization = FALSE
                      start magnetization = FALSE
                      start magnetization = FALSE
                      start magnetization = FALSE
                      start magnetization = FALSE
                      start magnetization = FALSE
                      start magnetization = FALSE
                      start magnetization = FALSE
                      start magnetization = FALSE

 READING ATOM TYPE 2
                               atom label = C
                      L=0, number of zeta = 3
                      L=1, number of zeta = 3
                      L=2, number of zeta = 2
             number of atom for this type = 36
                      start magnetization = FALSE
                      start magnetization = FALSE
                      start magnetization = FALSE
                      start magnetization = FALSE
                      start magnetization = FALSE
                      start magnetization = FALSE
                      start magnetization = FALSE
                      start magnetization = FALSE
                      start magnetization = FALSE
                      start magnetization = FALSE
                      start magnetization = FALSE
                      start magnetization = FALSE
                      start magnetization = FALSE
                      start magnetization = FALSE
                      start magnetization = FALSE
                      start magnetization = FALSE
                      start magnetization = FALSE
                      start magnetization = FALSE
                      start magnetization = FALSE
                      start magnetization = FALSE
                      start magnetization = FALSE
                      start magnetization = FALSE
                      start magnetization = FALSE
                      start magnetization = FALSE
                      start magnetization = FALSE
                      start magnetization = FALSE
                      start magnetization = FALSE
                      start magnetization = FALSE
                      start magnetization = FALSE
                      start magnetization = FALSE
                      start magnetization = FALSE
                      start magnetization = FALSE
                      start magnetization = FALSE
                      start magnetization = FALSE
                      start magnetization = FALSE
                      start magnetization = FALSE

                        TOTAL ATOM NUMBER = 72

 CARTESIAN COORDINATES ( UNIT = 1.88973 Bohr ).
         atom                   x                   y                   z                 mag                  vx                  vy                  vz
     tauc_Si1   5.93504583752e-07       1.80771146273        2.5665666846                   0                   0                   0                   0
     tauc_Si2       3.13105876798       7.23086537547        2.5665666846                   0                   0                   0                   0
     tauc_Si3      -3.13105936106       7.23086434749        2.5665666846                   0                   0                   0                   0
     tauc_Si4       4.69658251534       6.32700926226       5.13552972288                   0                   0                   0                   0
     tauc_Si5       1.56552422576      0.903855150422        5.1355297229                   0                   0                   0                   0
     tauc_Si6       7.82764258478      0.903856178287        5.1355297229                   0                   0                   0                   0
     tauc_Si7   5.93205580369e-07       1.80771146271       7.70454047872                   0                   0                   0                   0
     tauc_Si8       3.13105876816       7.23086537523       7.70454047872                   0                   0                   0                   0
     tauc_Si9      -3.13105936093       7.23086434777       7.70454047872                   0                   0                   0                   0
    tauc_Si10        4.6965825154       6.32700899733       10.2735430662                   0                   0                   0                   0
    tauc_Si11       1.56552445516      0.903855282945       10.2735430662                   0                   0                   0                   0
    tauc_Si12       7.82764235531      0.903856310706       10.2735430662                   0                   0                   0                   0
    tauc_Si13      -1.56552783973       4.51928821274       2.56656588111                   0                   0                   0                   0
    tauc_Si14       1.56552864234       4.51928960252       2.56656588111                   0                   0                   0                   0
    tauc_Si15  -8.02170987806e-07       7.23086337051       2.56656588112                   0                   0                   0                   0
    tauc_Si16       6.26211099437       3.61543240598        5.1355291659                   0                   0                   0                   0
    tauc_Si17       3.13105442055       3.61543101615        5.1355291659                   0                   0                   0                   0
    tauc_Si18       4.69658391099      0.903857168733        5.1355291659                   0                   0                   0                   0
    tauc_Si19      -1.56552791687       4.51928816795       7.70454005875                   0                   0                   0                   0
    tauc_Si20        1.5655287197       4.51928955815       7.70454005875                   0                   0                   0                   0
    tauc_Si21  -8.02410190137e-07        7.2308634597       7.70454005875                   0                   0                   0                   0
    tauc_Si22       6.26211098048       3.61543239838       10.2735423996                   0                   0                   0                   0
    tauc_Si23       3.13105443409       3.61543100793       10.2735423996                   0                   0                   0                   0
    tauc_Si24       4.69658391132      0.903857184582       10.2735423996                   0                   0                   0                   0
    tauc_Si25       3.13105295087       1.80771295927       2.56656572846                   0                   0                   0                   0
    tauc_Si26       6.26211440181        1.8077149258       2.56656572846                   0                   0                   0                   0
    tauc_Si27        4.6965819734       4.51929270863       2.56656572846                   0                   0                   0                   0
    tauc_Si28       1.56553022742       6.32700767238       5.13552889428                   0                   0                   0                   0
    tauc_Si29      -1.56553136196       6.32700570694       5.13552889428                   0                   0                   0                   0
    tauc_Si30   1.13475142315e-06       3.61542780365       5.13552889428                   0                   0                   0                   0
    tauc_Si31       3.13105302634       1.80771300543       7.70453980243                   0                   0                   0                   0
    tauc_Si32        6.2621143241       1.80771496809       7.70453980243                   0                   0                   0                   0
    tauc_Si33       4.69658197561       4.51929262022       7.70453980243                   0                   0                   0                   0
    tauc_Si34       1.56553001238       6.32700754749       10.2735422625                   0                   0                   0                   0
    tauc_Si35      -1.56553114627       6.32700558315       10.2735422625                   0                   0                   0                   0
    tauc_Si36   1.13412778434e-06       3.61542805234       10.2735422624                   0                   0                   0                   0
      tauc_C1   6.11761050466e-07       1.80771058729       4.49810709801                   0                   0                   0                   0
      tauc_C2       3.13105951947       7.23086583335       4.49810709801                   0                   0                   0                   0
      tauc_C3      -3.13106013083       7.23086477371       4.49810709801                   0                   0                   0                   0
      tauc_C4       4.69658249799       6.32700986911       7.06710909195                   0                   0                   0                   0
      tauc_C5       1.56552370642      0.903854827686       7.06710909195                   0                   0                   0                   0
      tauc_C6       7.82764312146      0.903855885589       7.06710909195                   0                   0                   0                   0
      tauc_C7    6.1147913297e-07       1.80771090769       9.63612239071                   0                   0                   0                   0
      tauc_C8       3.13105924215       7.23086567289       9.63612239071                   0                   0                   0                   0
      tauc_C9       -3.1310598532       7.23086461376       9.63612239071                   0                   0                   0                   0
     tauc_C10       4.69658249658       6.32700981998       1.92915464942                   0                   0                   0                   0
     tauc_C11       1.56552374966       0.90385485099       1.92915464942                   0                   0                   0                   0
     tauc_C12       7.82764307964      0.903855911349       1.92915464942                   0                   0                   0                   0
     tauc_C13      -1.56552782876       4.51928819851        4.4981074611                   0                   0                   0                   0
     tauc_C14       1.56552865168       4.51928962349        4.4981074611                   0                   0                   0                   0
     tauc_C15   -8.2251195301e-07       7.23086337244       4.49810746112                   0                   0                   0                   0
     tauc_C16       6.26211087172       3.61543235238       7.06710974231                   0                   0                   0                   0
     tauc_C17       3.13105452582       3.61543093244       7.06710974231                   0                   0                   0                   0
     tauc_C18       4.69658392836      0.903857297467       7.06710974231                   0                   0                   0                   0
     tauc_C19      -1.56552778585       4.51928822445       9.63612292349                   0                   0                   0                   0
     tauc_C20       1.56552860775       4.51928964767       9.63612292349                   0                   0                   0                   0
     tauc_C21  -8.21495329675e-07        7.2308633223       9.63612292349                   0                   0                   0                   0
     tauc_C22       6.26211096171       3.61543240914         1.929154895                   0                   0                   0                   0
     tauc_C23       3.13105443166       3.61543098195         1.929154895                   0                   0                   0                   0
     tauc_C24       4.69658393255      0.903857191135         1.929154895                   0                   0                   0                   0
     tauc_C25       3.13105222539       1.80771257654        4.4981077865                   0                   0                   0                   0
     tauc_C26       6.26211509849       1.80771449315        4.4981077865                   0                   0                   0                   0
     tauc_C27       4.69658200219       4.51929353262        4.4981077865                   0                   0                   0                   0
     tauc_C28       1.56553083331       6.32700798511       7.06710996037                   0                   0                   0                   0
     tauc_C29      -1.56553193818       6.32700607099       7.06710996039                   0                   0                   0                   0
     tauc_C30   1.10513272204e-06       3.61542711829       7.06710996037                   0                   0                   0                   0
     tauc_C31       3.13105245938       1.80771271217        9.6361230916                   0                   0                   0                   0
     tauc_C32       6.26211486403       1.80771462802        9.6361230916                   0                   0                   0                   0
     tauc_C33       4.69658200265       4.51929326213        9.6361230916                   0                   0                   0                   0
     tauc_C34       1.56553069852       6.32700790925       1.92915517038                   0                   0                   0                   0
     tauc_C35      -1.56553180511       6.32700599216       1.92915517038                   0                   0                   0                   0
     tauc_C36   1.10683278336e-06       3.61542727294       1.92915517038                   0                   0                   0                   0


 READING ORBITAL FILE NAMES FOR LCAO
 orbital file: Si_gga_9au_100Ry_3s3p2d.orb
 orbital file: C_gga_9au_100Ry_3s3p2d.orb

                          Volume (Bohr^3) = 5298.73785433
                             Volume (A^3) = 785.191001299

 Lattice vectors: (Cartesian coordinate: in unit of a_0)
       +9.39316621721  +1.89492609906e-10  +5.05769828358e-15
       -4.69658310844      +8.13472059204  +1.50222771484e-12
   +5.53858211492e-15   +1.9049319149e-12      +10.2759311162
 Reciprocal vectors: (Cartesian coordinate: in unit of 2 pi/a_0)
       +0.10646037522     +0.061464926093  -1.14516278438e-14
   -2.47991976169e-12      +0.12292985219  -2.27884944033e-14
   -5.23986047789e-17  -1.80012399752e-14    +0.0973147823481




 >>>>>>>>>>>>>>>>>>>>>>>>>>>>>>>>>>>>>>>>>>>>>>>>>>>>>>>>>>>>>>>>>>>>>>
 |                                                                    |
 | Reading pseudopotentials files:                                    |
 | The pseudopotential file is in UPF format. The 'NC' indicates that |
 | the type of pseudopotential is 'norm conserving'. Functional of    |
 | exchange and correlation is decided by 4 given parameters in UPF   |
 | file.  We also read in the 'core correction' if there exists.      |
 | Also we can read the valence electrons number and the maximal      |
 | angular momentum used in this pseudopotential. We also read in the |
 | trail wave function, trail atomic density and local-pseudopotential|
 | on logrithmic grid. The non-local pseudopotential projector is also|
 | read in if there is any.                                           |
 |                                                                    |
 <<<<<<<<<<<<<<<<<<<<<<<<<<<<<<<<<<<<<<<<<<<<<<<<<<<<<<<<<<<<<<<<<<<<<<




                PAO radial cut off (Bohr) = 15

 Read in pseudopotential file is Si_ONCV_PBE-1.0.upf
                     pseudopotential type = NC
          exchange-correlation functional = PBE
                 nonlocal core correction = 0
                        valence electrons = 4
                                     lmax = 1
                           number of zeta = 0
                     number of projectors = 4
                           L of projector = 0
                           L of projector = 0
                           L of projector = 1
                           L of projector = 1
                PAO radial cut off (Bohr) = 15

 Read in pseudopotential file is C_ONCV_PBE-1.0.upf
                     pseudopotential type = NC
          exchange-correlation functional = PBE
                 nonlocal core correction = 0
                        valence electrons = 4
                                     lmax = 1
                           number of zeta = 0
                     number of projectors = 4
                           L of projector = 0
                           L of projector = 0
                           L of projector = 1
                           L of projector = 1
     initial pseudo atomic orbital number = 0
                                   NLOCAL = 1584




 >>>>>>>>>>>>>>>>>>>>>>>>>>>>>>>>>>>>>>>>>>>>>>>>>>>>>>>>>>>>>>>>>>>>>>
 |                                                                    |
 | Setup plane waves of charge/potential:                             |
 | Use the energy cutoff and the lattice vectors to generate the      |
 | dimensions of FFT grid. The number of FFT grid on each processor   |
 | is 'nrxx'. The number of plane wave basis in reciprocal space is   |
 | different for charege/potential and wave functions. We also set    |
 | the 'sticks' for the parallel of FFT. The number of plane waves    |
 | is 'npw' in each processor.                                        |
 <<<<<<<<<<<<<<<<<<<<<<<<<<<<<<<<<<<<<<<<<<<<<<<<<<<<<<<<<<<<<<<<<<<<<<





 SETUP THE PLANE WAVE BASIS
 energy cutoff for charge/potential (unit:Ry) = 400
          [fft grid for charge/potential] = 120, 120, 128
                      [fft grid division] = 2, 2, 2
      [big fft grid for charge/potential] = 60, 60, 64
                                     nbxx = 14400
                                     nrxx = 115200

 SETUP PLANE WAVES FOR CHARGE/POTENTIAL
                    number of plane waves = 715911
                         number of sticks = 8689

 PARALLEL PW FOR CHARGE/POTENTIAL
     PROC   COLUMNS(POT)             PW
        1            543          44745
        2            543          44745
        3            543          44745
        4            543          44745
        5            543          44745
        6            543          44745
        7            543          44745
        8            543          44745
        9            544          44748
       10            543          44743
       11            543          44743
       12            543          44743
       13            543          44745
       14            543          44743
       15            543          44743
       16            543          44743
 --------------- sum -------------------
       16           8689         715911
                            number of |g| = 19996
                                  max |g| = 36.1810837937
                                  min |g| = 0.196452732188

 SETUP THE ELECTRONS NUMBER
            electron number of element Si = 4
      total electron number of element Si = 144
             electron number of element C = 4
       total electron number of element C = 144
            AUTOSET number of electrons:  = 288
 DONE : SETUP UNITCELL Time : 0.120303178573 (SEC)





 >>>>>>>>>>>>>>>>>>>>>>>>>>>>>>>>>>>>>>>>>>>>>>>>>>>>>>>>>>>>>>>>>>>>>>
 |                                                                    |
 | Setup K-points                                                     |
 | We setup the k-points according to input parameters.               |
 | The reduced k-points are set according to symmetry operations.     |
 | We treat the spin as another set of k-points.                      |
 |                                                                    |
 <<<<<<<<<<<<<<<<<<<<<<<<<<<<<<<<<<<<<<<<<<<<<<<<<<<<<<<<<<<<<<<<<<<<<<





 SETUP K-POINTS
                                    nspin = 1
                   Input type of k points = Monkhorst-Pack(Gamma)
                                   nkstot = 64
                               nkstot_ibz = 36
      IBZ             DirectX             DirectY             DirectZ              Weight    ibz2bz
        1                   0                   0                   0            0.015625         0
        2                0.75                   0                   0             0.03125         1
        3                 0.5                   0                   0            0.015625         2
        4                   0                0.75                   0             0.03125         4
        5                0.75                0.75                   0             0.03125         5
        6                 0.5                0.75                   0             0.03125         6
        7                0.25                0.75                   0             0.03125         7
        8                   0                 0.5                   0            0.015625         8
        9                0.75                 0.5                   0             0.03125         9
       10                 0.5                 0.5                   0            0.015625        10
       11                   0                   0                0.75             0.03125        16
       12                0.75                   0                0.75             0.03125        17
       13                 0.5                   0                0.75             0.03125        18
       14                0.25                   0                0.75             0.03125        19
       15                   0                0.75                0.75             0.03125        20
       16                0.75                0.75                0.75             0.03125        21
       17                 0.5                0.75                0.75             0.03125        22
       18                0.25                0.75                0.75             0.03125        23
       19                   0                 0.5                0.75             0.03125        24
       20                0.75                 0.5                0.75             0.03125        25
       21                 0.5                 0.5                0.75             0.03125        26
       22                0.25                 0.5                0.75             0.03125        27
       23                   0                0.25                0.75             0.03125        28
       24                0.75                0.25                0.75             0.03125        29
       25                 0.5                0.25                0.75             0.03125        30
       26                0.25                0.25                0.75             0.03125        31
       27                   0                   0                 0.5            0.015625        32
       28                0.75                   0                 0.5             0.03125        33
       29                 0.5                   0                 0.5            0.015625        34
       30                   0                0.75                 0.5             0.03125        36
       31                0.75                0.75                 0.5             0.03125        37
       32                 0.5                0.75                 0.5             0.03125        38
       33                0.25                0.75                 0.5             0.03125        39
       34                   0                 0.5                 0.5            0.015625        40
       35                0.75                 0.5                 0.5             0.03125        41
       36                 0.5                 0.5                 0.5            0.015625        42
                               nkstot now = 36

  KPOINTS            DIRECT_X            DIRECT_Y            DIRECT_Z              WEIGHT
        1                   0                   0                   0            0.015625
        2                0.75                   0                   0             0.03125
        3                 0.5                   0                   0            0.015625
        4                   0                0.75                   0             0.03125
        5                0.75                0.75                   0             0.03125
        6                 0.5                0.75                   0             0.03125
        7                0.25                0.75                   0             0.03125
        8                   0                 0.5                   0            0.015625
        9                0.75                 0.5                   0             0.03125
       10                 0.5                 0.5                   0            0.015625
       11                   0                   0                0.75             0.03125
       12                0.75                   0                0.75             0.03125
       13                 0.5                   0                0.75             0.03125
       14                0.25                   0                0.75             0.03125
       15                   0                0.75                0.75             0.03125
       16                0.75                0.75                0.75             0.03125
       17                 0.5                0.75                0.75             0.03125
       18                0.25                0.75                0.75             0.03125
       19                   0                 0.5                0.75             0.03125
       20                0.75                 0.5                0.75             0.03125
       21                 0.5                 0.5                0.75             0.03125
       22                0.25                 0.5                0.75             0.03125
       23                   0                0.25                0.75             0.03125
       24                0.75                0.25                0.75             0.03125
       25                 0.5                0.25                0.75             0.03125
       26                0.25                0.25                0.75             0.03125
       27                   0                   0                 0.5            0.015625
       28                0.75                   0                 0.5             0.03125
       29                 0.5                   0                 0.5            0.015625
       30                   0                0.75                 0.5             0.03125
       31                0.75                0.75                 0.5             0.03125
       32                 0.5                0.75                 0.5             0.03125
       33                0.25                0.75                 0.5             0.03125
       34                   0                 0.5                 0.5            0.015625
       35                0.75                 0.5                 0.5             0.03125
       36                 0.5                 0.5                 0.5            0.015625

           k-point number in this process = 36
       minimum distributed K point number = 36

  KPOINTS         CARTESIAN_X         CARTESIAN_Y         CARTESIAN_Z              WEIGHT
        1                   0                   0                   0             0.03125
        2      0.079845281415     0.0460986945697                   0              0.0625
        3       0.05323018761     0.0307324630465                   0             0.03125
        4                   0     0.0921973891427                   0              0.0625
        5     0.0798452814132      0.138296083712                   0              0.0625
        6     0.0532301876082      0.122929852189                   0              0.0625
        7     0.0266150938031      0.107563620666                   0              0.0625
        8                   0     0.0614649260952                   0             0.03125
        9     0.0798452814138      0.107563620665                   0              0.0625
       10     0.0532301876088     0.0921973891416                   0             0.03125
       11                   0                   0     0.0729860867611              0.0625
       12      0.079845281415     0.0460986945697     0.0729860867611              0.0625
       13       0.05323018761     0.0307324630465     0.0729860867611              0.0625
       14      0.026615093805     0.0153662315232     0.0729860867611              0.0625
       15                   0     0.0921973891427      0.072986086761              0.0625
       16     0.0798452814132      0.138296083712      0.072986086761              0.0625
       17     0.0532301876082      0.122929852189      0.072986086761              0.0625
       18     0.0266150938031      0.107563620666      0.072986086761              0.0625
       19                   0     0.0614649260951     0.0729860867611              0.0625
       20     0.0798452814138      0.107563620665      0.072986086761              0.0625
       21     0.0532301876088     0.0921973891416      0.072986086761              0.0625
       22     0.0266150938038     0.0768311576184     0.0729860867611              0.0625
       23                   0     0.0307324630476     0.0729860867611              0.0625
       24     0.0798452814144     0.0768311576173     0.0729860867611              0.0625
       25     0.0532301876094      0.061464926094     0.0729860867611              0.0625
       26     0.0266150938044     0.0460986945708     0.0729860867611              0.0625
       27                   0                   0      0.048657391174             0.03125
       28      0.079845281415     0.0460986945697      0.048657391174              0.0625
       29       0.05323018761     0.0307324630465      0.048657391174             0.03125
       30                   0     0.0921973891427      0.048657391174              0.0625
       31     0.0798452814132      0.138296083712      0.048657391174              0.0625
       32     0.0532301876082      0.122929852189      0.048657391174              0.0625
       33     0.0266150938031      0.107563620666      0.048657391174              0.0625
       34                   0     0.0614649260951      0.048657391174             0.03125
       35     0.0798452814138      0.107563620665      0.048657391174              0.0625
       36     0.0532301876088     0.0921973891416      0.048657391174             0.03125

  KPOINTS            DIRECT_X            DIRECT_Y            DIRECT_Z              WEIGHT
        1                   0                   0                   0             0.03125
        2                0.75                   0                   0              0.0625
        3                 0.5                   0                   0             0.03125
        4                   0                0.75                   0              0.0625
        5                0.75                0.75                   0              0.0625
        6                 0.5                0.75                   0              0.0625
        7                0.25                0.75                   0              0.0625
        8                   0                 0.5                   0             0.03125
        9                0.75                 0.5                   0              0.0625
       10                 0.5                 0.5                   0             0.03125
       11                   0                   0                0.75              0.0625
       12                0.75                   0                0.75              0.0625
       13                 0.5                   0                0.75              0.0625
       14                0.25                   0                0.75              0.0625
       15                   0                0.75                0.75              0.0625
       16                0.75                0.75                0.75              0.0625
       17                 0.5                0.75                0.75              0.0625
       18                0.25                0.75                0.75              0.0625
       19                   0                 0.5                0.75              0.0625
       20                0.75                 0.5                0.75              0.0625
       21                 0.5                 0.5                0.75              0.0625
       22                0.25                 0.5                0.75              0.0625
       23                   0                0.25                0.75              0.0625
       24                0.75                0.25                0.75              0.0625
       25                 0.5                0.25                0.75              0.0625
       26                0.25                0.25                0.75              0.0625
       27                   0                   0                 0.5             0.03125
       28                0.75                   0                 0.5              0.0625
       29                 0.5                   0                 0.5             0.03125
       30                   0                0.75                 0.5              0.0625
       31                0.75                0.75                 0.5              0.0625
       32                 0.5                0.75                 0.5              0.0625
       33                0.25                0.75                 0.5              0.0625
       34                   0                 0.5                 0.5             0.03125
       35                0.75                 0.5                 0.5              0.0625
       36                 0.5                 0.5                 0.5             0.03125
 DONE : INIT K-POINTS Time : 0.130446045647 (SEC)

                           occupied bands = 144
                                   NLOCAL = 1584
                                   NBANDS = 173
                                   NBANDS = 173




 >>>>>>>>>>>>>>>>>>>>>>>>>>>>>>>>>>>>>>>>>>>>>>>>>>>>>>>>>>>>>>>>>>>>>>
 |                                                                    |
 | Setup numerical orbitals:                                          |
 | This part setup: numerical atomic orbitals, non-local projectors   |
 | and neutral potential (1D). The atomic orbitals information        |
 | including the radius, angular momentum and zeta number.            |
 | The neutral potential is the sum of local part of pseudopotential  |
 | and potential given by atomic charge, they will cancel out beyond  |
 | a certain radius cutoff, because the Z/r character.                |
 |                                                                    |
 <<<<<<<<<<<<<<<<<<<<<<<<<<<<<<<<<<<<<<<<<<<<<<<<<<<<<<<<<<<<<<<<<<<<<<





 SETUP ONE DIMENSIONAL ORBITALS/POTENTIAL
                        delta k  (1/Bohr) = 0.01
                        delta r    (Bohr) = 0.01
                        dr_uniform (Bohr) = 0.001
                        rmax       (Bohr) = 30
                                    kmesh = 1005
      ORBITAL  L  N      nr      dr    RCUT  CHECK_UNIT    NEW_UNIT
            1  0  0     901    0.01       9           1           1
            2  0  1     901    0.01       9           1           1
            3  0  2     901    0.01       9           1           1
            4  1  0     901    0.01       9           1           1
            5  1  1     901    0.01       9           1           1
            6  1  2     901    0.01       9           1           1
            7  2  0     901    0.01       9           1           1
            8  2  1     901    0.01       9           1           1
      ORBITAL  L  N      nr      dr    RCUT  CHECK_UNIT    NEW_UNIT
            1  0  0     901    0.01       9           1           1
            2  0  1     901    0.01       9           1           1
            3  0  2     901    0.01       9           1           1
            4  1  0     901    0.01       9           1           1
            5  1  1     901    0.01       9           1           1
            6  1  2     901    0.01       9           1           1
            7  2  0     901    0.01       9           1           1
            8  2  1     901    0.01       9           1           1
 SET NONLOCAL PSEUDOPOTENTIAL PROJECTORS
 SET NONLOCAL PSEUDOPOTENTIAL PROJECTORS
 max number of nonlocal projetors among all species is 4

 SETUP THE TWO-CENTER INTEGRATION TABLES

 SETUP THE DIVISION OF H/S MATRIX
 divide the H&S matrix using 2D block algorithms.
                                     nb2d = 64
 parameter nb2d is too large: nb2d = 64
 reset nb2d to value 1, this set would make the program keep working but maybe get slower during diagonalization.
                  trace_loc_row dimension = 1584
                  trace_loc_col dimension = 1584
                                     nloc = 156816

 -------------------------------------------
 STEP OF MOLECULAR DYNAMICS : 0
 -------------------------------------------
              searching radius is (Bohr)) = 25.3
         searching radius unit is (Bohr)) = 1.89
1614028
                                 init_chg = atomic
 DONE : INIT SCF Time : 9.98561 (SEC)


 LCAO ALGORITHM --------------- ION=   1  ELEC=   1--------------------------------

 Density error is 0.269600804994

 LCAO ALGORITHM --------------- ION=   1  ELEC=   2--------------------------------

 Density error is 0.151585886864

 LCAO ALGORITHM --------------- ION=   1  ELEC=   3--------------------------------

 Density error is 0.0233436287189

 LCAO ALGORITHM --------------- ION=   1  ELEC=   4--------------------------------

 Density error is 0.00105750460927

 LCAO ALGORITHM --------------- ION=   1  ELEC=   5--------------------------------

 Density error is 0.000227183376186

 LCAO ALGORITHM --------------- ION=   1  ELEC=   6--------------------------------

 Density error is 0.000189460848656

 LCAO ALGORITHM --------------- ION=   1  ELEC=   7--------------------------------

 Density error is 5.58183019503e-05

 LCAO ALGORITHM --------------- ION=   1  ELEC=   8--------------------------------

 Density error is 6.54660832987e-06

 LCAO ALGORITHM --------------- ION=   1  ELEC=   9--------------------------------

 Density error is 4.18788177936e-06

 LCAO ALGORITHM --------------- ION=   1  ELEC=  10--------------------------------

 Density error is 5.54754155306e-07

 charge density convergence is achieved
 final etot is -9456.39677044 eV

 ><><><><><><><><><><><><><><><><><><><><><><><><><><><><><><><><><><><

    TOTAL-FORCE (eV/Angstrom)

 ><><><><><><><><><><><><><><><><><><><><><><><><><><><><><><><><><><><

     atom              x              y              z
      Si1      +1.7884064e-06      +3.6984989e-05       -0.0035123538
      Si2      -3.2951979e-05      -1.6734514e-05       -0.0035123526
      Si3      +3.0939487e-05      -1.9962849e-05        -0.003512354
      Si4      -1.7846554e-06      -2.1731722e-05       -0.0032079176
      Si5      +1.9740743e-05      +9.1133889e-06       -0.0032079173
      Si6      -1.7734051e-05      +1.2330339e-05       -0.0032079175
      Si7      +1.7702883e-06      +2.7977503e-05        -0.002873095
      Si8      -2.5143174e-05      -1.2246435e-05       -0.0028730964
      Si9      +2.3149285e-05      -1.5442415e-05        -0.002873095
     Si10      -1.7816586e-06      -4.3227381e-05       -0.0031643272
     Si11       +3.835536e-05      +1.9861591e-05       -0.0031643285
     Si12      -3.6348744e-05      +2.3078558e-05       -0.0031643279
     Si13      +1.3733046e-05      +1.3942064e-05       -0.0035463598
     Si14      -1.8968957e-05      +5.1307603e-06       -0.0035463585
     Si15      +5.0126853e-06      -1.8785482e-05       -0.0035463578
     Si16      -1.2240657e-05      -1.3089245e-05          -0.0032229
     Si17      +1.7483403e-05      -4.2640315e-06       -0.0032229002
     Si18      -5.0201634e-06      +1.7065492e-05       -0.0032228992
     Si19      +7.4070251e-06      +1.0302815e-05       -0.0028668479
     Si20      -1.2654065e-05      +1.4720175e-06       -0.0028668492
     Si21      +5.0235135e-06      -1.1486429e-05       -0.0028668492
     Si22      -8.8998787e-06      -1.1158228e-05       -0.0031770964
     Si23       +1.414201e-05      -2.3381445e-06       -0.0031770962
     Si24      -5.0184856e-06      +1.3208697e-05       -0.0031770966
     Si25      +7.8226079e-06      +1.7095168e-05       -0.0035114154
     Si26      -1.8743256e-05      -1.5636841e-06       -0.0035114155
     Si27      +1.0697532e-05      -1.5241628e-05       -0.0035114163
     Si28      +3.8987662e-06      -1.0334139e-05       -0.0032012043
     Si29      +7.0297112e-06       +8.334215e-06       -0.0032012036
     Si30      -1.0703005e-05        +1.71188e-06       -0.0032012049
     Si31      +6.3534834e-06       +1.624686e-05       -0.0028516217
     Si32      -1.7275139e-05      -2.4124114e-06       -0.0028516219
     Si33      +1.0698773e-05       -1.354625e-05       -0.0028516222
     Si34       -1.806654e-05      -2.3009266e-05       -0.0031486237
     Si35      +2.8986801e-05      -4.3518927e-06       -0.0031486239
     Si36      -1.0698373e-05      +2.7070141e-05       -0.0031486238
       C1      +1.6382059e-06      -2.7517139e-06       +0.0029096152
       C2      +1.5292279e-06      +3.0065403e-06       +0.0029096151
       C3      -3.4035565e-06                   0       +0.0029096149
       C4      -1.6478479e-06      -7.5720345e-06        +0.003272211
       C5       +7.415795e-06      +2.1464508e-06       +0.0032722114
       C6      -5.5330116e-06      +5.1357083e-06       +0.0032722106
       C7      +1.6390068e-06      +3.0458994e-05       +0.0034667766
       C8      -2.7230402e-05      -1.3596899e-05       +0.0034667757
       C9      +2.5357415e-05      -1.6571946e-05       +0.0034667759
      C10      -1.6366801e-06      -2.0121165e-05       +0.0030860177
      C11      +1.8276951e-05      +8.4305883e-06       +0.0030860167
      C12      -1.6405263e-05      +1.1401542e-05       +0.0030860174
      C13      -5.1736353e-06      +2.4595129e-06       +0.0029015305
      C14      +4.2401174e-07      -5.4974452e-06        +0.002901531
      C15      +4.5171537e-06      +3.3280261e-06       +0.0029015309
      C16      -3.6994539e-06      -7.5348088e-06       +0.0032981398
      C17      +8.4080495e-06      +3.5057648e-07       +0.0032981387
      C18      -4.4745179e-06      +6.8935404e-06       +0.0032981382
      C19      +4.4872299e-06      +8.0207984e-06       +0.0034891695
      C20      -9.2240761e-06                   0       +0.0034891691
      C21      +4.5004299e-06      -7.8198721e-06       +0.0034891677
      C22      +4.3855864e-06      -2.9387346e-06       +0.0030744089
      C23      +3.8646818e-07       +5.055343e-06       +0.0030744099
      C24      -4.5371517e-06      -2.4044674e-06       +0.0030744095
      C25       -8.436181e-06      +8.0426614e-06       +0.0029173329
      C26      -2.7804966e-06      -1.1115513e-05       +0.0029173326
      C27       +1.098127e-05      +3.3621218e-06       +0.0029173322
      C28      +8.3391323e-06      -8.0623367e-06         +0.00330355
      C29      +2.8468436e-06        +1.10411e-05       +0.0033035513
      C30      -1.0950939e-05      -3.2678828e-06       +0.0033035518
      C31      +1.0671391e-05      +1.9064402e-05       +0.0034846928
      C32      -2.1879711e-05                   0        +0.003484693
      C33      +1.0974218e-05      -1.8697144e-05       +0.0034846936
      C34      -1.0569216e-05      -1.9031127e-05       +0.0030803206
      C35      +2.1798968e-05                   0       +0.0030803189
      C36      -1.0995356e-05      +1.8591411e-05       +0.0030803189


 ><><><><><><><><><><><><><><><><><><><><><><><><><><><><><><><><><><><

 TOTAL-STRESS (KBAR)

 ><><><><><><><><><><><><><><><><><><><><><><><><><><><><><><><><><><><

              -59.596582              -0.000006              +0.000000
               -0.000006             -59.596614              -0.000000
               +0.000000              -0.000000             -58.416699
 TOTAL-PRESSURE: -59.203298 KBAR


 ------------------------------------------------------------------------------------------------
 Energy              Potential           Kinetic             Temperature         Pressure (KBAR)     
 -347.51267          -347.51605          +0.0033726584       +10                 -59.078455          
 ------------------------------------------------------------------------------------------------

output Pressure for check!
Virtual Pressure is -59.078455 Kbar 
Virial Term is -59.203298 Kbar 
Kenetic Term is +0.12484374 Kbar 


 ><><><><><><><><><><><><><><><><><><><><><><><><><><><><><><><><><><><

 MD STRESS (KBAR)

 ><><><><><><><><><><><><><><><><><><><><><><><><><><><><><><><><><><><

-59.481232     -0.02181854    +0.0010159256  
-0.02181854    -59.477881     -0.019307024   
+0.0010159256  -0.019307024   -58.276251     



 -------------------------------------------
 STEP OF MOLECULAR DYNAMICS : 1
 -------------------------------------------
 NEW-OLD atomic charge density approx. for the potential !
 searching radius is (Bohr))              = +25.29
 searching radius unit is (Bohr))         = +1.8897261
+1614028
 DONE : INIT SCF Time : +1102.9 (SEC)


 LCAO ALGORITHM --------------- ION=+2    ELEC=+1  --------------------------------

 Density error is +0.00040255241922

 LCAO ALGORITHM --------------- ION=+2    ELEC=+2  --------------------------------

 Density error is +0.000210984587904

 LCAO ALGORITHM --------------- ION=+2    ELEC=+3  --------------------------------

 Density error is +0.000222561060837

 LCAO ALGORITHM --------------- ION=+2    ELEC=+4  --------------------------------

 Density error is +6.57031274859e-05

 LCAO ALGORITHM --------------- ION=+2    ELEC=+5  --------------------------------

 Density error is +3.64364882663e-05

 LCAO ALGORITHM --------------- ION=+2    ELEC=+6  --------------------------------

 Density error is +1.25882971156e-05

 LCAO ALGORITHM --------------- ION=+2    ELEC=+7  --------------------------------

 Density error is +4.05678203134e-06

 LCAO ALGORITHM --------------- ION=+2    ELEC=+8  --------------------------------

 Density error is +1.412891532e-06

 LCAO ALGORITHM --------------- ION=+2    ELEC=+9  --------------------------------

 Density error is +4.92274357556e-07

 charge density convergence is achieved
 final etot is -9456.3959699 eV

 ><><><><><><><><><><><><><><><><><><><><><><><><><><><><><><><><><><><

    TOTAL-FORCE (eV/Angstrom)

 ><><><><><><><><><><><><><><><><><><><><><><><><><><><><><><><><><><><

 atom    x              y              z              
 Si1     -0.020575567        +0.01749832         -0.02899728         
 Si2     +0.004578183        +0.022590046        -0.013290886        
 Si3     +0.0022053072       -0.027554308        -0.0043369652       
 Si4     -0.02206031         +0.035730804        -0.0046876385       
 Si5     -0.0059732078       -0.017914275        -0.012305616        
 Si6     -0.021032074        -0.011974968        +0.0030624738       
 Si7     -0.0026805709       +0.0040098979       +0.0013768827       
 Si8     -0.01311478         -0.0093777739       -0.0041304116       
 Si9     -0.010546911        -0.0021305238       +0.011812096        
 Si10    +0.012842565        -0.015787693        -0.015783989        
 Si11    -0.0020007287       -0.026129886        -0.0051714902       
 Si12    -0.00087274653      +0.017324027        -7.7365548e-05      
 Si13    -0.0072770563       +0.003168132        -0.005343871        
 Si14    -0.0054311258       -0.0050122986       -0.018078326        
 Si15    -0.0044371191       +0.016909504        +0.018295469        
 Si16    +0.016278695        +0.015358589        -0.019984429        
 Si17    +0.010322778        -0.01142186         -0.028564916        
 Si18    +0.00030968942      -0.0095585718       -0.010632862        
 Si19    -0.0027226258       -0.0076086338       -0.0012221254       
 Si20    -0.016898023        -0.007929487        +0.0094942244       
 Si21    +0.014182196        +0.020761012        +0.014802051        
 Si22    -0.023506083        -0.0065589641       +0.013774719        
 Si23    +0.0012387165       -0.0024244013       +0.010502133        
 Si24    -0.022853894        -0.010957156        +0.0059946972       
 Si25    +0.0069222865       -0.0087810497       +0.0053802099       
 Si26    +0.0035909753       -0.017386461        -0.015351715        
 Si27    +0.0029719164       +0.0020236777       -0.0035621811       
 Si28    +0.017613692        -0.0081057081       -2.4056802e-05      
 Si29    +0.000263558        +0.018673869        -0.014239929        
 Si30    +0.0070984782       -0.0036270161       -0.0077880556       
 Si31    -0.018124841        +0.017093306        -0.018277671        
 Si32    +0.04071147         -0.0094243645       -0.013384868        
 Si33    -0.0062182001       +0.017205205        -0.032796481        
 Si34    -0.0081505464       +0.0065216055       +0.020610084        
 Si35    -0.015340799        +0.00092495321      +0.017679757        
 Si36    -0.018127063        -0.013360792        +0.0033005226       
 C1      +0.031277752        +0.011604124        +0.017386237        
 C2      +0.0031269915       -0.0079637887       +0.031951753        
 C3      +0.017542793        +0.020500269        +0.013859607        
 C4      -0.0044280521       -0.025666472        +0.0022289785       
 C5      +0.023533998        +0.0050243884       -0.00057947708      
 C6      -0.021406455        +0.0028440734       -0.0027994934       
 C7      -5.8775219e-05      -0.0058266775       +0.009572411        
 C8      +0.018604171        +0.0066506026       -0.0050984495       
 C9      -0.023084413        +0.014825018        +0.011510871        
 C10     -0.006267695        +0.016440105        +0.0030693097       
 C11     -0.0092512823       +0.0092505784       -0.0079662697       
 C12     +0.012369097        -0.019342755        +0.014543656        
 C13     -0.016972625        -0.024692115        +0.015260939        
 C14     -0.017401361        -0.0028349628       +0.035458182        
 C15     -0.0080429858       +0.008444168        -0.0059103068       
 C16     -0.0091077214       +0.012856482        +0.026570011        
 C17     +0.021913594        -0.0076890555       +0.034453777        
 C18     -0.018118531        -0.018881517        -0.0023850043       
 C19     +0.031598041        -0.00063711489      -0.0033140323       
 C20     +0.0083672505       +0.013421708        -0.026296222        
 C21     +0.0035152039       +0.011711254        -0.0028226367       
 C22     +0.012598086        +0.019902902        -0.0037788036       
 C23     +0.0024448406       +0.00072163293      -0.009219658        
 C24     -0.0062044818       -0.0016327255       -0.00013317161      
 C25     -0.012466148        +0.010101747        +0.00079786452      
 C26     +0.012441675        -0.00082948546      +0.014709084        
 C27     -0.010256017        -0.032596119        +0.0056984547       
 C28     +0.01311822         -0.0042274597       -0.012095651        
 C29     -0.005076752        -0.0087714391       -0.018533087        
 C30     +0.0059928653       +0.016796157        +0.012767065        
 C31     +0.018390489        +3.1568551e-05      +0.014219661        
 C32     +0.0088739935       -0.0040759171       -0.0067533021       
 C33     +0.015229616        +0.021407944        +0.022032339        
 C34     +0.012114701        -0.020319644        -0.035065999        
 C35     +0.0014609352       +0.0090016777       -0.019715352        
 C36     +0.00044274922      -0.00831591         +0.018324525        


 ><><><><><><><><><><><><><><><><><><><><><><><><><><><><><><><><><><><

 TOTAL-STRESS (KBAR)

 ><><><><><><><><><><><><><><><><><><><><><><><><><><><><><><><><><><><

 -59.551683             +0.047951              -0.056844              
 +0.047951              -59.661357             -0.009237              
 -0.056844              -0.009237              -58.390733             
 TOTAL-PRESSURE: -59.201258 KBAR


 ------------------------------------------------------------------------------------------------
 Energy              Potential           Kinetic             Temperature         Pressure (KBAR)     
 -347.50891          -347.51602          +0.0071085069       +21.076866          -58.938126          
 ------------------------------------------------------------------------------------------------

output Pressure for check!
Virtual Pressure is -58.938126 Kbar 
Virial Term is -59.201258 Kbar 
Kenetic Term is +0.26313147 Kbar 


 ><><><><><><><><><><><><><><><><><><><><><><><><><><><><><><><><><><><

 MD STRESS (KBAR)

 ><><><><><><><><><><><><><><><><><><><><><><><><><><><><><><><><><><><

-59.298886     +0.075779895   -0.040852046   
+0.075779895   -59.312587     +0.0026174301  
-0.040852046   +0.0026174301  -58.202906     



 -------------------------------------------
 STEP OF MOLECULAR DYNAMICS : 2
 -------------------------------------------
 first order charge density extrapolation !
 searching radius is (Bohr))              = +25.29
 searching radius unit is (Bohr))         = +1.8897261
+1614028
 DONE : INIT SCF Time : +2085.03 (SEC)


 LCAO ALGORITHM --------------- ION=+3    ELEC=+1  --------------------------------

 Density error is +0.00151869154375

 LCAO ALGORITHM --------------- ION=+3    ELEC=+2  --------------------------------

 Density error is +0.000976402007936

 LCAO ALGORITHM --------------- ION=+3    ELEC=+3  --------------------------------

 Density error is +0.000838724191392

 LCAO ALGORITHM --------------- ION=+3    ELEC=+4  --------------------------------

 Density error is +0.000209944119449

 LCAO ALGORITHM --------------- ION=+3    ELEC=+5  --------------------------------

 Density error is +0.000151757212955

 LCAO ALGORITHM --------------- ION=+3    ELEC=+6  --------------------------------

 Density error is +5.92356926737e-05

 LCAO ALGORITHM --------------- ION=+3    ELEC=+7  --------------------------------

 Density error is +2.45990562641e-05

 LCAO ALGORITHM --------------- ION=+3    ELEC=+8  --------------------------------

 Density error is +4.86628856141e-06

 LCAO ALGORITHM --------------- ION=+3    ELEC=+9  --------------------------------

 Density error is +1.66140502913e-06

 LCAO ALGORITHM --------------- ION=+3    ELEC=+10 --------------------------------

 Density error is +3.93272334531e-07

 charge density convergence is achieved
 final etot is -9456.38775085 eV

 ><><><><><><><><><><><><><><><><><><><><><><><><><><><><><><><><><><><

    TOTAL-FORCE (eV/Angstrom)

 ><><><><><><><><><><><><><><><><><><><><><><><><><><><><><><><><><><><

 atom    x              y              z              
 Si1     -0.063001204        +0.064037606        +0.033492035        
 Si2     +0.014586086        +0.0157429          -0.02394624         
 Si3     -0.0010424229       +0.0023443851       -0.0058494629       
 Si4     -0.029926908        +0.038653908        -0.056354686        
 Si5     -0.046741418        -0.049023265        +0.025693899        
 Si6     -0.065762012        -0.019052507        -0.04962355         
 Si7     +0.0047109175       +0.031373002        -0.033569045        
 Si8     -0.034991278        -0.054233459        -0.030075645        
 Si9     -0.041818575        -0.044216898        -0.001973185        
 Si10    +0.038001538        -0.07086009         +0.017091857        
 Si11    -0.06516455         -0.051612736        -0.024380563        
 Si12    -0.03660357         +0.013109709        +0.034208348        
 Si13    -0.0025281483       +0.012266992        -0.025335119        
 Si14    -0.08471573         -0.048119227        -0.03986604         
 Si15    -0.026774735        -0.0085280171       +0.030777161        
 Si16    -0.03008888         -0.021073367        +0.023033226        
 Si17    +0.023119402        +0.11450364         -0.056821993        
 Si18    -0.039272781        -0.064113274        -0.023013263        
 Si19    +0.010824548        +0.024340202        +0.0044366029       
 Si20    +0.048539947        -0.039021258        -0.0058571402       
 Si21    +0.017706148        -0.026418483        +0.040262158        
 Si22    +0.038462101        +0.041778981        +0.014606262        
 Si23    +0.049440982        -0.023202958        -0.055146628        
 Si24    -0.045895482        -0.05143674         -0.01767012         
 Si25    -0.018619935        -0.10205009         +0.04310806         
 Si26    +0.064917592        -0.0047677658       -0.045299439        
 Si27    +0.064856549        +0.068495964        -0.035221004        
 Si28    -0.016793025        -0.019541562        +0.040907176        
 Si29    -0.029627291        -0.016670102        -0.030256896        
 Si30    -0.056637811        -0.032836688        -0.014705109        
 Si31    -0.011899042        +0.026578605        +0.014101904        
 Si32    +0.011484184        -0.040546676        -0.0093695975       
 Si33    -0.064890268        +0.030899086        +0.017162303        
 Si34    -0.056035902        -0.016067172        -0.038095814        
 Si35    -0.1147806          -0.019934583        -0.059171476        
 Si36    -0.097864494        +0.019900921        -0.019787091        
 C1      +0.041571026        +0.039293716        -0.0034722072       
 C2      +0.073194149        +0.01646714         +0.067183421        
 C3      +0.02257126         -0.012334078        +0.048225995        
 C4      +0.010129703        -0.032150138        +0.069749229        
 C5      +0.036350643        +0.097345688        -0.036614034        
 C6      -0.043911265        +0.0068447382       +0.005099235        
 C7      +0.099947843        -0.024679077        +0.011923154        
 C8      +0.051179916        +0.094256229        +0.02654502         
 C9      +0.06252335         -0.045277698        +0.029526402        
 C10     -0.077989577        -0.054216249        -0.055387741        
 C11     +0.08639374         +0.007379461        -0.0051181136       
 C12     -0.054191069        -0.033898225        -0.05625159         
 C13     +0.061571092        +0.022639281        -0.031144552        
 C14     +0.038792668        -0.051001515        -0.014443384        
 C15     -0.0081995525       +0.058682709        -0.072022641        
 C16     +0.047227156        -0.043085022        -0.030953608        
 C17     -0.021973187        -0.074031453        +0.1049273          
 C18     +0.030292768        +0.054871985        +0.051258663        
 C19     +0.011885824        +0.038181505        +0.054814937        
 C20     +0.060102879        -0.052320002        +0.060453648        
 C21     +0.075282915        +0.098043952        -0.011430054        
 C22     -0.036326397        -0.060527768        +0.073954782        
 C23     -0.037768925        +0.10926356         +1.3163757e-05      
 C24     -0.020761364        +0.015876896        +0.037654721        
 C25     +0.046719629        -0.041905436        -0.045068117        
 C26     +0.070964657        +0.082338245        +0.039121703        
 C27     -0.069425335        -0.077019707        +0.027389317        
 C28     -0.047948908        +0.11086738         -0.027627568        
 C29     +0.034248079        -0.024207243        -0.028657573        
 C30     +0.020456122        -0.046997533        -0.0057859149       
 C31     +0.048921733        +0.10167131         -0.038110748        
 C32     -0.032905432        -0.070196305        -0.040196507        
 C33     -0.071544188        +0.065121175        -0.024876578        
 C34     +0.068234742        -0.051903767        +0.025604854        
 C35     +0.015864573        +0.062477428        +0.067318474        
 C36     +0.1033448          +0.033429832        +0.088905031        


 ><><><><><><><><><><><><><><><><><><><><><><><><><><><><><><><><><><><

 TOTAL-STRESS (KBAR)

 ><><><><><><><><><><><><><><><><><><><><><><><><><><><><><><><><><><><

 -59.539893             +0.418018              -0.371626              
 +0.418018              -59.828556             -0.170873              
 -0.371626              -0.170873              -58.176880             
 TOTAL-PRESSURE: -59.181776 KBAR


 ------------------------------------------------------------------------------------------------
 Energy              Potential           Kinetic             Temperature         Pressure (KBAR)     
 -347.49666          -347.51572          +0.019057404        +56.505586          -58.47634           
 ------------------------------------------------------------------------------------------------

output Pressure for check!
Virtual Pressure is -58.47634 Kbar 
Virial Term is -59.181776 Kbar 
Kenetic Term is +0.70543687 Kbar 


 ><><><><><><><><><><><><><><><><><><><><><><><><><><><><><><><><><><><

 MD STRESS (KBAR)

 ><><><><><><><><><><><><><><><><><><><><><><><><><><><><><><><><><><><

-58.698017     +0.469543      -0.3242092     
+0.469543      -59.146682     -0.24456053    
-0.3242092     -0.24456053    -57.58432      



 -------------------------------------------
 STEP OF MOLECULAR DYNAMICS : 3
 -------------------------------------------
 second order charge density extrapolation !
 searching radius is (Bohr))              = +25.29
 searching radius unit is (Bohr))         = +1.8897261
+1614028
 DONE : INIT SCF Time : +3166.59 (SEC)


 LCAO ALGORITHM --------------- ION=+4    ELEC=+1  --------------------------------

 Density error is +0.00184808115893

 LCAO ALGORITHM --------------- ION=+4    ELEC=+2  --------------------------------

 Density error is +0.00126413713404

 LCAO ALGORITHM --------------- ION=+4    ELEC=+3  --------------------------------

 Density error is +0.00119303228389

 LCAO ALGORITHM --------------- ION=+4    ELEC=+4  --------------------------------

 Density error is +0.000310984260648

 LCAO ALGORITHM --------------- ION=+4    ELEC=+5  --------------------------------

 Density error is +0.000176583742425

 LCAO ALGORITHM --------------- ION=+4    ELEC=+6  --------------------------------

 Density error is +6.46136998031e-05

 LCAO ALGORITHM --------------- ION=+4    ELEC=+7  --------------------------------

 Density error is +2.67810464919e-05

 LCAO ALGORITHM --------------- ION=+4    ELEC=+8  --------------------------------

 Density error is +6.47102052974e-06

 LCAO ALGORITHM --------------- ION=+4    ELEC=+9  --------------------------------

 Density error is +2.06300208719e-06

 LCAO ALGORITHM --------------- ION=+4    ELEC=+10 --------------------------------

 Density error is +5.01608589471e-07

 charge density convergence is achieved
 final etot is -9456.36900087 eV

 ><><><><><><><><><><><><><><><><><><><><><><><><><><><><><><><><><><><

    TOTAL-FORCE (eV/Angstrom)

 ><><><><><><><><><><><><><><><><><><><><><><><><><><><><><><><><><><><

 atom    x              y              z              
 Si1     -0.094381679        +0.22172507         +0.012302177        
 Si2     -0.057203115        +0.066570059        -0.10286616         
 Si3     +0.0054171403       +0.051273122        -0.024740059        
 Si4     +0.01744477         +0.022717264        -0.084435947        
 Si5     -0.11028208         -0.16608905         +0.0063262427       
 Si6     -0.042100228        -0.08100584         -0.032042285        
 Si7     +0.062700509        +0.0080120847       -0.01956901         
 Si8     +0.042791703        -0.096567343        -0.09312015         
 Si9     +0.0061991444       -0.041676343        -0.05404595         
 Si10    +0.042648015        -0.10268616         -0.021489669        
 Si11    -0.1424947          -0.019093791        -0.040911664        
 Si12    -0.011319855        +0.043518494        +0.032146182        
 Si13    +0.033262191        -0.006098274        +0.068192233        
 Si14    -0.18597433         -0.095377046        -0.11533162         
 Si15    +0.0027706311       +0.032194884        +0.053536409        
 Si16    -0.13168338         +0.076420646        +0.049329079        
 Si17    +0.056361121        +0.11777259         -0.14956894         
 Si18    -0.067886941        -0.042721899        -0.10565658         
 Si19    -0.089923182        -0.0070491423       +0.078754585        
 Si20    +0.07438298         +0.094989096        +0.11563348         
 Si21    +0.05808793         -0.00018771143      +0.061755371        
 Si22    +0.0032322061       -0.054720978        +0.040703956        
 Si23    +0.044426328        +0.070849442        +0.044015088        
 Si24    -0.020240286        -0.055716749        +0.07578142         
 Si25    -0.014512884        -0.019888955        +0.0035087289       
 Si26    +0.020172317        +0.075484305        -0.09115457         
 Si27    +0.0079968395       +0.055822887        -0.033973824        
 Si28    -0.13128823         -0.041090978        +0.080561415        
 Si29    -0.10459575         -0.095237362        -0.13546263         
 Si30    -0.16942775         +0.045305442        -0.076314618        
 Si31    -0.11782668         +0.090387835        +0.084898947        
 Si32    +0.10701298         -0.076069179        +0.018683859        
 Si33    -0.024707143        +0.11597032         +0.099385204        
 Si34    -0.12392626         -0.041228239        +0.065602462        
 Si35    -0.16040606         -0.072120475        -0.026424826        
 Si36    -0.1450402          +0.0088470193       +0.055671046        
 C1      +0.040899531        +0.06382476         +0.0041435885       
 C2      +0.15928764         +0.14484809         +0.095447388        
 C3      +0.082061298        -0.032059547        +0.14946            
 C4      -0.12704304         -0.044504762        +0.12523065         
 C5      +0.015851077        +0.12064879         +0.0038006954       
 C6      -0.16878262         -0.02544683         +0.039941735        
 C7      +0.20246957         -0.061004411        +0.036218487        
 C8      +0.13417133         +0.1157846          +0.085624777        
 C9      +0.11115684         -0.031269689        +0.13852743         
 C10     -0.086855026        +0.014930009        -0.06014936         
 C11     +0.14904994         -0.1044075          -0.079032117        
 C12     -0.091648689        -0.20155976         -0.089947396        
 C13     +0.19497537         +0.13070725         -0.035803373        
 C14     +0.095214831        -0.14217832         +0.1158388          
 C15     +0.0226398          +0.070148066        -0.092830805        
 C16     +0.033509802        -0.042382424        -0.03021759         
 C17     -0.097327296        -0.11702954         +0.015553606        
 C18     +0.10050563         -0.013149451        +0.076203958        
 C19     +0.077466717        +0.18179855         -0.035293096        
 C20     +0.092310613        -0.10362529         -0.082783271        
 C21     +0.0056504511       +0.056734027        -0.10677494         
 C22     -0.062342289        -0.10154786         +0.039785326        
 C23     -0.035258066        +0.066360367        -0.040192967        
 C24     +0.074907195        -0.020931173        +0.0094682967       
 C25     +0.14334467         +0.06484403         +0.055399803        
 C26     -0.0036224614       -0.028067588        +0.013119218        
 C27     -0.015099276        -0.14606253         +0.091365065        
 C28     +0.017601348        +0.02066231         +0.021700578        
 C29     +0.012288302        +0.05252724         +0.058509259        
 C30     +0.10169682         -0.10003667         -0.11232361         
 C31     +0.096249472        +0.068765072        -0.13875368         
 C32     -0.14353596         +0.037661068        -0.018956987        
 C33     -0.085274152        +0.022884124        -0.13235399         
 C34     +0.15790541         -0.032628722        -0.021014115        
 C35     -0.074104845        +0.029992266        -0.018705733        
 C36     +0.22999399         +0.0015363922       +0.080114982        


 ><><><><><><><><><><><><><><><><><><><><><><><><><><><><><><><><><><><

 TOTAL-STRESS (KBAR)

 ><><><><><><><><><><><><><><><><><><><><><><><><><><><><><><><><><><><

 -58.710152             +0.942411              -0.731658              
 +0.942411              -60.339415             +0.042928              
 -0.731658              +0.042928              -58.300078             
 TOTAL-PRESSURE: -59.116548 KBAR


 ------------------------------------------------------------------------------------------------
 Energy              Potential           Kinetic             Temperature         Pressure (KBAR)     
 -347.49086          -347.51503          +0.024164816        +71.649164          -58.222054          
 ------------------------------------------------------------------------------------------------

output Pressure for check!
Virtual Pressure is -58.222054 Kbar 
Virial Term is -59.116548 Kbar 
Kenetic Term is +0.89449496 Kbar 


 ><><><><><><><><><><><><><><><><><><><><><><><><><><><><><><><><><><><

 MD STRESS (KBAR)

 ><><><><><><><><><><><><><><><><><><><><><><><><><><><><><><><><><><><

-57.806494     +0.70227789    -0.84200333    
+0.70227789    -59.317302     +0.036489937   
-0.84200333    +0.036489937   -57.542365     



 -------------------------------------------
 STEP OF MOLECULAR DYNAMICS : 4
 -------------------------------------------
 second order charge density extrapolation !
 searching radius is (Bohr))              = +25.29
 searching radius unit is (Bohr))         = +1.8897261
+1614028
 DONE : INIT SCF Time : +4252.83 (SEC)


 LCAO ALGORITHM --------------- ION=+5    ELEC=+1  --------------------------------

 Density error is +0.00235852137915

 LCAO ALGORITHM --------------- ION=+5    ELEC=+2  --------------------------------

 Density error is +0.00140191173192

 LCAO ALGORITHM --------------- ION=+5    ELEC=+3  --------------------------------

 Density error is +0.00129794142105

 LCAO ALGORITHM --------------- ION=+5    ELEC=+4  --------------------------------

 Density error is +0.000299482482116

 LCAO ALGORITHM --------------- ION=+5    ELEC=+5  --------------------------------

 Density error is +0.00020797510085

 LCAO ALGORITHM --------------- ION=+5    ELEC=+6  --------------------------------

 Density error is +9.37038360646e-05

 LCAO ALGORITHM --------------- ION=+5    ELEC=+7  --------------------------------

 Density error is +3.43400981357e-05

 LCAO ALGORITHM --------------- ION=+5    ELEC=+8  --------------------------------

 Density error is +7.01851590343e-06

 LCAO ALGORITHM --------------- ION=+5    ELEC=+9  --------------------------------

 Density error is +1.970466881e-06

 LCAO ALGORITHM --------------- ION=+5    ELEC=+10 --------------------------------

 Density error is +6.1293917906e-07

 charge density convergence is achieved
 final etot is -9456.34594356 eV

 ><><><><><><><><><><><><><><><><><><><><><><><><><><><><><><><><><><><

    TOTAL-FORCE (eV/Angstrom)

 ><><><><><><><><><><><><><><><><><><><><><><><><><><><><><><><><><><><

 atom    x              y              z              
 Si1     -0.093719696        +0.18548733         -0.014846724        
 Si2     +0.13092555         +0.015180189        -0.033363167        
 Si3     +0.056498289        +0.099522903        -0.00082864344      
 Si4     +0.07584849         +0.041609108        -0.049341933        
 Si5     -0.12676654         -0.21990079         +0.011017601        
 Si6     +0.033859962        -0.19390518         -0.14478916         
 Si7     +0.088901935        +0.024054823        +0.062654193        
 Si8     +0.16589849         -0.20946709         -0.026948997        
 Si9     -0.10656488         -0.032376224        -0.081586896        
 Si10    +0.02777779         -0.12547532         -0.0022078445       
 Si11    -0.13314261         +0.037457919        -0.028820731        
 Si12    -0.063873831        +0.0089517118       +0.10168823         
 Si13    -0.082083058        +0.024188733        +0.12603763         
 Si14    -0.1603821          -0.10581945         +0.02982147         
 Si15    +0.0063362002       +0.037614895        +0.18571615         
 Si16    -0.22333542         +0.12822222         -0.0097868153       
 Si17    +0.035754683        +0.11974396         -0.17144574         
 Si18    +0.041537008        -0.11074357         -0.17635884         
 Si19    +0.041554994        -0.05671949         +0.14049257         
 Si20    +0.012461441        +0.042886798        +0.086853032        
 Si21    +0.095456778        -0.057979787        +0.013858865        
 Si22    -0.033057797        -0.052395972        +0.11868943         
 Si23    -0.076552178        +0.20061504         +0.0030846386       
 Si24    -0.060872513        -0.0011430448       +0.067343005        
 Si25    +0.051208663        -0.043347892        -0.11875705         
 Si26    +0.11157103         +0.059538434        -0.10318969         
 Si27    +0.061087425        +0.16465874         -0.14756877         
 Si28    -0.14132807         +0.096073207        +0.072489403        
 Si29    -0.081291714        +0.034291476        -0.085430811        
 Si30    -0.17542931         +0.12237998         +0.041726466        
 Si31    -0.11365863         -0.0066720635       -0.0055743663       
 Si32    +0.0066718209       -0.094175267        +0.091375706        
 Si33    -0.052271554        +0.22330773         +0.12844404         
 Si34    -0.1534563          -0.076218938        +0.055146053        
 Si35    -0.15167863         -0.061765991        -0.015117086        
 Si36    -0.02607193         -0.033494879        -0.035572376        
 C1      +0.13056856         -0.015167178        +0.061110908        
 C2      +0.034348463        +0.22141991         +0.10323597         
 C3      +0.073851355        +0.012191669        +0.046928616        
 C4      -0.2506164          -0.19361917         +0.22190654         
 C5      +0.14799081         +0.25959168         -0.075045419        
 C6      -0.30261076         +0.13301937         +0.04771091         
 C7      +0.25501604         +0.019465796        -0.043139671        
 C8      +0.11910532         +0.22445083         +0.04678663         
 C9      +0.16179966         -0.059555634        +0.10215701         
 C10     -0.22108141         -0.0091515755       +0.011320915        
 C11     +0.09862547         -0.13124328         +0.025866224        
 C12     -0.1929194          -0.15544795         -0.10822837         
 C13     +0.23638088         +0.016301285        -0.12313974         
 C14     +0.18391594         -0.26996386         -0.039747189        
 C15     +0.077990202        -0.031400562        -0.19905854         
 C16     +0.14728396         -0.14593109         -0.14957702         
 C17     -0.086511438        +0.0078197494       +0.057959633        
 C18     +0.15158078         +0.0093209649       +0.1808034          
 C19     -0.0052312651       +0.29228109         -0.1370674          
 C20     +0.13769521         -0.21737942         +0.024399182        
 C21     -0.01620075         +0.0039611947       -0.18579597         
 C22     -0.10066103         -0.15586904         +0.043763938        
 C23     +0.068146632        -0.088572309        +0.021288594        
 C24     -0.061675544        +0.092150356        +0.050487017        
[...]
 C15     +0.030025185        -0.36891806         -0.41821408         
 C16     +0.052657348        -0.42871505         -0.24914343         
 C17     +0.19380833         +0.24245561         +0.20283298         
 C18     +0.048868262        +0.14502309         +0.66232934         
 C19     +0.399495           +0.22735048         -0.14577628         
 C20     +0.19391223         -0.28889899         +0.32198793         
 C21     +0.042218142        +0.3541053          -0.19230723         
 C22     -0.45578963         -0.15660427         -0.008871305        
 C23     -0.22771154         +0.099669454        +0.2925909          
 C24     -0.53168182         +0.030176637        -0.492281           
 C25     -0.16359103         -0.034560898        +0.040400396        
 C26     -0.36821403         +0.27553632         +0.29372533         
 C27     -0.51548919         -0.36584222         +0.2977117          
 C28     -0.01719562         +0.18187254         -0.50011123         
 C29     +0.041345692        -0.13385047         -0.10103743         
 C30     -0.15308591         -0.23007615         +0.018726492        
 C31     +0.1033754          -0.2027556          +0.26702936         
 C32     +0.15369163         +0.14177383         +0.038293941        
 C33     -0.24627006         +0.12170733         +0.0038774226       
 C34     +0.068309752        +0.08849652         +0.026815531        
 C35     -0.0035116869       +0.76852796         -0.44354175         
 C36     -0.016900784        +0.081614968        +0.41859182         


 ><><><><><><><><><><><><><><><><><><><><><><><><><><><><><><><><><><><

 TOTAL-STRESS (KBAR)

 ><><><><><><><><><><><><><><><><><><><><><><><><><><><><><><><><><><><

 -59.889424             +3.745174              +0.294340              
 +3.745174              -59.365783             -0.629024              
 +0.294340              -0.629024              -56.018761             
 TOTAL-PRESSURE: -58.424656 KBAR


 ------------------------------------------------------------------------------------------------
 Energy              Potential           Kinetic             Temperature         Pressure (KBAR)     
 -347.42923          -347.5065           +0.077270584        +229.10883          -55.564376          
 ------------------------------------------------------------------------------------------------

output Pressure for check!
Virtual Pressure is -55.564376 Kbar 
Virial Term is -58.424656 Kbar 
Kenetic Term is +2.8602804 Kbar 


 ><><><><><><><><><><><><><><><><><><><><><><><><><><><><><><><><><><><

 MD STRESS (KBAR)

 ><><><><><><><><><><><><><><><><><><><><><><><><><><><><><><><><><><><

-57.453711     +3.5640951     +0.67533574    
+3.5640951     -56.432315     -0.88951484    
+0.67533574    -0.88951484    -52.807101     



 -------------------------------------------
 STEP OF MOLECULAR DYNAMICS : 10
 -------------------------------------------
 second order charge density extrapolation !
 searching radius is (Bohr))              = +25.29
 searching radius unit is (Bohr))         = +1.8897261
+1614028
 DONE : INIT SCF Time : +10960.4 (SEC)


 LCAO ALGORITHM --------------- ION=+11   ELEC=+1  --------------------------------

 Density error is +0.00345344801294

 LCAO ALGORITHM --------------- ION=+11   ELEC=+2  --------------------------------

 Density error is +0.00204805419045

 LCAO ALGORITHM --------------- ION=+11   ELEC=+3  --------------------------------

 Density error is +0.00184468713018

 LCAO ALGORITHM --------------- ION=+11   ELEC=+4  --------------------------------

 Density error is +0.000491889224718

 LCAO ALGORITHM --------------- ION=+11   ELEC=+5  --------------------------------

 Density error is +0.000368126035515

 LCAO ALGORITHM --------------- ION=+11   ELEC=+6  --------------------------------

 Density error is +0.000127460049618

 LCAO ALGORITHM --------------- ION=+11   ELEC=+7  --------------------------------

 Density error is +5.07405061611e-05

 LCAO ALGORITHM --------------- ION=+11   ELEC=+8  --------------------------------

 Density error is +1.0322343983e-05

 LCAO ALGORITHM --------------- ION=+11   ELEC=+9  --------------------------------

 Density error is +3.47656017751e-06

 LCAO ALGORITHM --------------- ION=+11   ELEC=+10 --------------------------------

 Density error is +1.00052936989e-06

 LCAO ALGORITHM --------------- ION=+11   ELEC=+11 --------------------------------

 Density error is +4.47465949986e-07

 charge density convergence is achieved
 final etot is -9456.07876862 eV

 ><><><><><><><><><><><><><><><><><><><><><><><><><><><><><><><><><><><

    TOTAL-FORCE (eV/Angstrom)

 ><><><><><><><><><><><><><><><><><><><><><><><><><><><><><><><><><><><

 atom    x              y              z              
 Si1     -0.18248982         -0.056478374        +0.033836793        
 Si2     -0.23600653         +0.12895496         -0.17495455         
 Si3     +0.30303419         +0.19928493         +0.27130057         
 Si4     +0.31709752         +0.31117512         -0.19026555         
 Si5     +0.091717888        +0.04717896         -0.18067603         
 Si6     +0.22111656         -0.60597406         -0.55790803         
 Si7     +0.14312901         +0.20452508         -0.21048705         
 Si8     +0.53876356         -0.26566674         -0.10049241         
 Si9     +0.047798629        -0.070594875        -0.29754737         
 Si10    +0.41242315         -0.14516394         -0.27436555         
 Si11    +0.23107403         +0.17539036         +0.16998918         
 Si12    -0.48751634         -0.30177451         +0.44060501         
 Si13    +0.31310332         -0.29017437         -0.21879842         
 Si14    -0.10826672         -0.19753555         -0.47396072         
 Si15    +0.27061781         -0.12477884         +0.57114314         
 Si16    -0.17467609         +0.079944464        -0.15978864         
 Si17    +0.027152217        +0.49649797         -0.046602991        
 Si18    +0.22697698         +0.019349906        -0.48396868         
 Si19    +0.39871447         +0.051032           -0.13429191         
 Si20    -0.10442747         -0.31322369         -0.053208122        
 Si21    +0.00053395251      -0.44946616         +0.019647349        
 Si22    +0.028019283        -0.076022372        +0.092629729        
 Si23    -0.20766186         +0.2213766          -0.45638653         
 Si24    -0.28505937         -0.25880826         +0.14776853         
 Si25    +0.14474569         -0.35140731         -0.20360066         
 Si26    +0.42401656         -0.0039376998       -0.14445395         
 Si27    +0.38403812         -0.28980459         -0.074190324        
 Si28    -0.41236884         +0.095621631        +0.19541947         
 Si29    -0.20736641         +0.060425604        -0.03115807         
 Si30    -0.34355769         +0.17848113         +0.022714737        
 Si31    +0.17282829         +0.10631397         -0.16244931         
 Si32    -0.040674996        -0.060689853        -0.19273179         
 Si33    -0.26487658         -0.12736168         -0.079761856        
 Si34    -0.11203064         +0.14985504         +0.13737571         
 Si35    +0.073797165        -0.36628782         +0.32260234         
 Si36    -0.31408499         +0.10349188         -0.078115151        
 C1      +0.35563094         -0.078976454        -0.13446386         
 C2      +0.36020885         +0.57697031         +0.6331296          
 C3      +0.020124038        -0.25489864         -0.085748681        
 C4      -0.63752081         +0.30852777         +0.41034368         
 C5      -0.15594736         -0.15533744         +0.32942969         
 C6      -0.25012149         +0.13424883         +0.51091516         
 C7      +0.61901346         +0.37824613         -0.28101868         
 C8      +0.04839946         +0.11085328         +0.27215001         
 C9      -0.37121055         -0.12087555         -0.012357628        
 C10     -0.36345429         +0.43208701         -0.11056692         
 C11     +0.042936466        -0.19154734         -0.12766932         
 C12     +0.14933794         -0.23543456         -0.32992577         
 C13     +0.53219733         +0.29874454         +0.31987068         
 C14     +0.3343533          -0.60179239         +0.60038765         
 C15     +0.015175978        -0.15782145         -0.27194137         
 C16     -0.06404392         -0.56174127         -0.093829512        
 C17     +0.289896           +0.4509246          +0.082382351        
 C18     +0.064847498        +0.17343944         +0.63606797         
 C19     +0.46934199         +0.26225897         -0.031331991        
 C20     +0.13961873         -0.4892425          +0.2611213          
 C21     -0.036074876        +0.39838582         -0.21458039         
 C22     -0.38591237         -0.22482339         +0.078741096        
 C23     -0.25204029         +0.18088211         +0.43127206         
 C24     -0.48297748         +0.17401029         -0.33107624         
 C25     -0.26116927         -0.24614973         +0.033806041        
 C26     -0.59152026         +0.25321761         +0.42416255         
 C27     -0.38993212         -0.53368539         +0.28354202         
 C28     -0.23431173         +0.32916444         -0.66598192         
 C29     +0.18166038         -0.023660523        -0.033468089        
 C30     -0.23658283         +0.016163195        +0.11848326         
 C31     +0.16151813         -0.27821956         +0.14186382         
 C32     -0.091357636        +0.36811208         +0.06896681         
 C33     -0.13129024         +0.059520932        +0.005281527        
 C34     +0.044343058        +0.31754557         -0.221926           
 C35     -0.21361414         +0.64755942         -0.53627319         
 C36     +0.030844091        +0.0095949352       +0.39537338         


 ><><><><><><><><><><><><><><><><><><><><><><><><><><><><><><><><><><><

 TOTAL-STRESS (KBAR)

 ><><><><><><><><><><><><><><><><><><><><><><><><><><><><><><><><><><><

 -61.359410             +3.263283              +0.649182              
 +3.263283              -58.088659             -0.909284              
 +0.649182              -0.909284              -55.208648             
 TOTAL-PRESSURE: -58.218906 KBAR


 ------------------------------------------------------------------------------------------------
 Energy              Potential           Kinetic             Temperature         Pressure (KBAR)     
 -347.40122          -347.50436          +0.10313935         +305.81024          -54.401056          
 ------------------------------------------------------------------------------------------------

output Pressure for check!
Virtual Pressure is -54.401056 Kbar 
Virial Term is -58.218906 Kbar 
Kenetic Term is +3.8178494 Kbar 


 ><><><><><><><><><><><><><><><><><><><><><><><><><><><><><><><><><><><

 MD STRESS (KBAR)

 ><><><><><><><><><><><><><><><><><><><><><><><><><><><><><><><><><><><

-57.661007     +3.3868592     +0.38040135    
+3.3868592     -54.071665     -1.2660311     
+0.38040135    -1.2660311     -51.470496     




 --------------------------------------------
 !FINAL_ETOT_IS -9456.078768619544 eV
 --------------------------------------------






  |CLASS_NAME---------|NAME---------------|TIME(Sec)-----|CALLS----|AVG------|PER%-------
                       total               +12141         27        +4.5e+02  +1e+02    %
   Driver              driver_line         +12141         1         +1.2e+04  +1e+02    %
   PW_Basis            setup_struc_factor  +1.265         11        +0.12     +0.01     %
   ORB_control         read_orb_first      +0.23348       1         +0.23     +0.0019   %
   LCAO_Orbitals       Read_Orbitals       +0.23347       1         +0.23     +0.0019   %
   NOrbital_Lm         extra_uniform       +0.12645       16        +0.0079   +0.001    %
   Mathzone_Add1       Uni_Deriv_Phi       +0.11147       16        +0.007    +0.00092  %
   ORB_control         set_orb_tables      +7.2227        1         +7.2      +0.059    %
   ORB_gen_tables      gen_tables          +7.2227        1         +7.2      +0.059    %
   ORB_table_phi       init_Table          +5.4035        1         +5.4      +0.045    %
   ORB_table_phi       cal_ST_Phi12_R      +5.3609        558       +0.0096   +0.044    %
   ORB_table_beta      init_Table_Beta     +1.3318        1         +1.3      +0.011    %
   ORB_table_beta      VNL_PhiBeta_R       +1.3199        168       +0.0079   +0.011    %
   ppcell_vl           init_vloc           +0.12457       1         +0.12     +0.001    %
   Run_MD              md_line             +12133         1         +1.2e+04  +1e+02    %
   Langevin            setup               +1093.3        1         +1.1e+03  +9        %
   MD_func             force_stress        +12133         11        +1.1e+03  +1e+02    %
   ESolver_KS_LCAO     Run                 +11102         11        +1e+03    +91       %
   ESolver_KS_LCAO     beforescf           +18.879        11        +1.7      +0.16     %
   ESolver_KS_LCAO     beforesolver        +9.3725        11        +0.85     +0.077    %
   ESolver_KS_LCAO     set_matrix_grid     +5.4139        11        +0.49     +0.045    %
   atom_arrange        search              +0.10183       11        +0.0093   +0.00084  %
   Grid_Technique      init                +2.8078        11        +0.26     +0.023    %
   Grid_BigCell        grid_expansion_index+0.96428       22        +0.044    +0.0079   %
   Record_adj          for_2d              +2.2671        11        +0.21     +0.019    %
   Grid_Driver         Find_atom           +14.406        608616    +2.4e-05  +0.12     %
   Charge              atomic_rho          +6.7589        21        +0.32     +0.056    %
   PW_Basis            recip2real          +2.2831        680       +0.0034   +0.019    %
   PW_Basis            gathers_scatterp    +1.487         680       +0.0022   +0.012    %
   Potential           init_pot            +0.98031       11        +0.089    +0.0081   %
   Potential           update_from_charge  +10.179        123       +0.083    +0.084    %
   Potential           cal_v_eff           +10.135        123       +0.082    +0.083    %
   H_Hartree_pw        v_hartree           +1.0415        123       +0.0085   +0.0086   %
   PW_Basis            real2recip          +3.6809        1028      +0.0036   +0.03     %
   PW_Basis            gatherp_scatters    +2.1721        1028      +0.0021   +0.018    %
   PotXC               cal_v_eff           +9.0171        123       +0.073    +0.074    %
   XC_Functional       v_xc                +8.972         123       +0.073    +0.074    %
   HSolverLCAO         solve               +11064         112       +99       +91       %
   HamiltLCAO          updateHk            +3955.1        4032      +0.98     +33       %
   OperatorLCAO        init                +3348.1        8064      +0.42     +28       %
   Veff                contributeHk        +3345.8        4032      +0.83     +28       %
   Gint_interface      cal_gint            +4057.1        235       +17       +33       %
   Gint_interface      cal_gint_vlocal     +1957.3        112       +17       +16       %
   Gint_k              folding_vl_k        +1388.5        4032      +0.34     +11       %
   Gint_k              Distri              +1167.9        4032      +0.29     +9.6      %
   Overlap             contributeHR        +4.5379        11        +0.41     +0.037    %
   LCAO_gen_fixedH     calculate_S_no      +4.5379        11        +0.41     +0.037    %
   Ekinetic<OperatorLCAO>contributeHR        +4.6126        11        +0.42     +0.038    %
   Nonlocal<OperatorLCAO>contributeHR        +51.093        11        +4.6      +0.42     %
   LCAO_gen_fixedH     build_Nonlocal_mu_new+160.64        22        +7.3      +1.3      %
   ORB_gen_tables      snap_psibeta_half   +3.3619        1241460   +2.7e-06  +0.028    %
   OperatorLCAO        folding_fixed       +546.76        4032      +0.14     +4.5      %
   LCAO_nnr            folding_fixedH      +539.8         4032      +0.13     +4.4      %
   HSolverLCAO         hamiltSolvePsiK     +1773.3        4032      +0.44     +15       %
   DiagoElpa           elpa_solve          +1761.1        4032      +0.44     +15       %
   ElecStateLCAO       psiToRho            +5335.5        112       +48       +44       %
   elecstate           cal_dm              +178.04        123       +1.4      +1.5      %
   psiMulPsiMpi        pdgemm              +173.44        4428      +0.039    +1.4      %
    Local_Orbital_wfc  wfc_2d_to_grid      +29.121        4032      +0.0072   +0.24     %
   LCAO_Charge         cal_dk_k            +2728.2        112       +24       +22       %
   Record_adj          for_grid            +0.58872       112       +0.0053   +0.0048   %
   Gint_interface      cal_gint_rho        +1625.6        112       +15       +13       %
   Charge              mix_rho             +1.4159        101       +0.014    +0.012    %
   Force_Stress_LCAO   getForceStress      +1030.3        11        +94       +8.5      %
   Forces              cal_force_loc       +0.94509       11        +0.086    +0.0078   %
   Forces              cal_force_ew        +0.93818       11        +0.085    +0.0077   %
   Forces              cal_force_scc       +4.2736        11        +0.39     +0.035    %
   Stress_Func         stress_loc          +2.8184        11        +0.26     +0.023    %
   Stress_Func         stress_ewa          +0.42251       11        +0.038    +0.0035   %
   Stress_Func         stress_gga          +0.47435       11        +0.043    +0.0039   %
   Force_LCAO_k        ftable_k            +1020.3        11        +93       +8.4      %
   Force_LCAO_k        allocate_k          +140.43        11        +13       +1.2      %
   Force_LCAO_k        cal_foverlap_k      +31.322        11        +2.8      +0.26     %
   Force_LCAO_k        cal_edm_2d          +30.313        11        +2.8      +0.25     %
   Local_Orbital_Chargecal_dm_R            +12.321        22        +0.56     +0.1      %
   Force_LCAO_k        cal_ftvnl_dphi_k    +0.31105       11        +0.028    +0.0026   %
   Force_LCAO_k        cal_fvl_dphi_k      +474.24        11        +43       +3.9      %
   Gint_interface      cal_gint_force      +474.24        11        +43       +3.9      %
   Force_LCAO_k        cal_fvnl_dbeta_k_new+289.45        11        +26       +2.4      %
 ----------------------------------------------------------------------------------------

 CLASS_NAME---------|NAME---------------|MEMORY(MB)--------
                                         +2.612e+04
 ORB_table_phi       Jl(x)               +138.2         
 allocate_pvpR       pvpR_reduced        +86.41         
 LocalOrbital_Charge Density_Matrix      +86.41         
 stress_lo           dSR                 +73.88         
 force_lo            dS                  +36.94         
 force_lo            dTVNL               +36.94         
 Force_LCAO_k        dm2d                +12.31         
 ORB_table_phi       Table_SR&TR         +10.58         
 Grid_Meshcell       index2normal        +8.435         
 Grid_Meshcell       index2ucell         +8.435         
 Charge_Mixing       Rrho                +7.031         
 Charge_Mixing       dRrho               +6.152         
 Charge_Mixing       drho                +6.152         
 LocalOrbital_Coef   wfc_k_grid          +4.181         
 init_meshball       meshball_pos        +3.507         
 atoms_on_grid       which_atom          +2.635         
 atoms_on_grid       which_bigcell       +2.635         
 atoms_on_grid       which_unitcell      +2.635         
 ORB_table_beta      Table_NR            +2.045         
 PW_Basis            struc_fac           +1.366         
 ----------------------------------------------------------

 Start  Time  : Mon May 22 14:16:29 2023
 Finish Time  : Mon May 22 17:38:48 2023
 Total  Time  : 3 h 22 mins 19 secs 
