-8.405768652889999430e+03
-8.405767928209999809e+03
-8.405760998629999449e+03
-8.405747357199999897e+03
-8.405728712160000214e+03
-8.405701096220000181e+03
-8.405697377979999146e+03
-8.405658173989999341e+03
-8.405602579700000206e+03
-8.405549975600000835e+03
-8.405472841349999726e+03
-8.394368388250000862e+03
-8.394718355069999234e+03
-8.395443600380000134e+03
-8.396042211440000756e+03
-8.396592655860000377e+03
-8.397141441219999251e+03
-8.397373043060000782e+03
-8.397548263209999277e+03
-8.397719191649999630e+03
-8.397828601970000818e+03
-8.398215770000000703e+03
-8.395073996439999974e+03
-8.395235625639999853e+03
-8.395586099820000527e+03
-8.395869231250000666e+03
-8.396225597829999970e+03
-8.396491253270000016e+03
-8.396727915699999357e+03
-8.396978268240000034e+03
-8.397000722549999409e+03
-8.397127945030000774e+03
-8.397414453629999116e+03
-8.399612889100000757e+03
-8.399684796659999847e+03
-8.399917413369999849e+03
-8.400067757020000499e+03
-8.400158104779999121e+03
-8.400303604049999194e+03
-8.400324624509999921e+03
-8.400343339799999740e+03
-8.400492729749999853e+03
-8.400443603559999246e+03
-8.400443936019999455e+03
-8.402187126450000505e+03
-8.402223907229999895e+03
-8.402293391490000431e+03
-8.402351505930000712e+03
-8.402437118940000801e+03
-8.402501992980000068e+03
-8.402480373649999819e+03
-8.402445306129999153e+03
-8.402470217419999244e+03
-8.402415269420000186e+03
-8.402425906369999211e+03
-8.400193887789999280e+03
-8.400263794559999951e+03
-8.400397911239999303e+03
-8.400507265669999470e+03
-8.400620765550000215e+03
-8.400643396100000245e+03
-8.400781487910000578e+03
-8.400856727500000488e+03
-8.400911353040000904e+03
-8.400950162540000747e+03
-8.400991599589999169e+03
-8.398702994679999392e+03
-8.398840760659999432e+03
-8.399164845609999247e+03
-8.399461930479999864e+03
-8.399655627269999968e+03
-8.399853771050000432e+03
-8.399998006159999932e+03
-8.399998638839999330e+03
-8.400107389209999383e+03
-8.400187902319999921e+03
-8.400331291829999827e+03
-8.394180093479999414e+03
-8.394396470109999427e+03
-8.394866621720000694e+03
-8.395315048880000177e+03
-8.395651839239999390e+03
-8.395871488599999793e+03
-8.396123712250000608e+03
-8.396177701950000483e+03
-8.396307215529999667e+03
-8.396518306789999770e+03
-8.396714959189999718e+03
-8.405030703660000654e+03
-8.405038469139999506e+03
-8.405062291259999256e+03
-8.405063516719999825e+03
-8.405054071209999165e+03
-8.405059626509999362e+03
-8.405053565820000586e+03
-8.405013755070000116e+03
-8.405007580150000649e+03
-8.404930088690000048e+03
-8.404896643919999406e+03
-8.400533184339999934e+03
-8.400597938029999568e+03
-8.400645916260000376e+03
-8.400738396959999591e+03
-8.400776886789999480e+03
-8.400853652600000714e+03
-8.401000338289999490e+03
-8.401083888780000052e+03
-8.401190703460000805e+03
-8.401271098060000440e+03
-8.401258785759999228e+03
-8.398647614260000410e+03
-8.398752593220000563e+03
-8.398947784419999152e+03
-8.399131983900000705e+03
-8.399241457939999236e+03
-8.399324204529999406e+03
-8.399432986499999970e+03
-8.399405983189999461e+03
-8.399577227910000147e+03
-8.399676540369999202e+03
-8.399635884979999901e+03
-8.406180120580000221e+03
-8.406179385650000768e+03
-8.406172733830000652e+03
-8.406159948869999425e+03
-8.406142441500000132e+03
-8.406116398800000752e+03
-8.406112867719999485e+03
-8.406076067770000009e+03
-8.406023934409999129e+03
-8.405974273809999431e+03
-8.405901041720000649e+03
-8.396821586809999644e+03
-8.397047387189999426e+03
-8.397505787710000732e+03
-8.397884775129999980e+03
-8.398271759240000392e+03
-8.398487933750000593e+03
-8.398665493739999874e+03
-8.398723473300000478e+03
-8.398902981889999865e+03
-8.399102486140000110e+03
-8.399148174480000307e+03
-8.398838863959999799e+03
-8.398945814230000906e+03
-8.399161684049999167e+03
-8.399358490729999176e+03
-8.399649098579999190e+03
-8.399816859810000096e+03
-8.399924366999999620e+03
-8.400015449250000529e+03
-8.400014683749999676e+03
-8.400066057089999958e+03
-8.400242149739999149e+03
-8.399343529210000270e+03
-8.399409258730000147e+03
-8.399486723179999899e+03
-8.399581590429999778e+03
-8.399645236039999872e+03
-8.399767936180000106e+03
-8.399891296230000080e+03
-8.400003380719999768e+03
-8.400088030670000080e+03
-8.400131112330000178e+03
-8.400122801690000415e+03
-8.395196364400000675e+03
-8.395374667520000003e+03
-8.395848742379999749e+03
-8.396189600589999827e+03
-8.396470327529999850e+03
-8.396831744060000347e+03
-8.396989038539999456e+03
-8.397204196040000170e+03
-8.397421425079999608e+03
-8.397465111199999228e+03
-8.397621410660000038e+03
-8.399987334420000479e+03
-8.400048288750000211e+03
-8.400218963999999687e+03
-8.400357690529999672e+03
-8.400398078890000761e+03
-8.400440982840000288e+03
-8.400522690460000376e+03
-8.400457212960000106e+03
-8.400505022150000514e+03
-8.400550624940000489e+03
-8.400401211059999696e+03
-8.399879915949999486e+03
-8.399951575619999858e+03
-8.400038328290000209e+03
-8.400209105039999486e+03
-8.400332635900000241e+03
-8.400437941129999672e+03
-8.400555862170000182e+03
-8.400573570880000261e+03
-8.400634273789999497e+03
-8.400693348999999216e+03
-8.400737124299999778e+03
-8.402238088710000739e+03
-8.402278087200000300e+03
-8.402342733629999202e+03
-8.402411165260000416e+03
-8.402409760590000587e+03
-8.402438194779999321e+03
-8.402501545400000396e+03
-8.402470625940000900e+03
-8.402534151919999204e+03
-8.402518097640000633e+03
-8.402427187290000802e+03
-8.402769986569999674e+03
-8.402790972060000058e+03
-8.402840492659999654e+03
-8.402902649609999571e+03
-8.402867277150000518e+03
-8.402870391149999705e+03
-8.402903103810000175e+03
-8.402784411410000757e+03
-8.402794822719999502e+03
-8.402790654860000359e+03
-8.402637871700000687e+03
-8.401128544459999830e+03
-8.401216437170000063e+03
-8.401344424749999234e+03
-8.401436997770000744e+03
-8.401597112400000697e+03
-8.401714850309999747e+03
-8.401966373830000521e+03
-8.402259267909999835e+03
-8.402241112480000083e+03
-8.402280100039999525e+03
-8.402402679680000801e+03
-8.393836178310000832e+03
-8.394037677370000893e+03
-8.394476025030000528e+03
-8.394870432190000429e+03
-8.395315592869999819e+03
-8.395673167880000619e+03
-8.395843067899999369e+03
-8.395964399029999186e+03
-8.396060843789999126e+03
-8.396171799179999653e+03
-8.396464971979999973e+03
-8.405792012160000013e+03
-8.405791327079999974e+03
-8.405785157110000000e+03
-8.405773171529999672e+03
-8.405756702779999614e+03
-8.405732133690000410e+03
-8.405728783840000688e+03
-8.405694248350000635e+03
-8.405645364039999549e+03
-8.405598479430000225e+03
-8.405528987069999857e+03
-8.398336490929999854e+03
-8.398499708049999754e+03
-8.398856765450000239e+03
-8.399133728590000828e+03
-8.399468737690000125e+03
-8.399610210650000226e+03
-8.399766853279999850e+03
-8.399858450330000778e+03
-8.399947280970000065e+03
-8.400088555129999804e+03
-8.400156801679999262e+03
-8.401300303140000324e+03
-8.401374591550000332e+03
-8.401505679690000761e+03
-8.401642306080000708e+03
-8.401836900509999396e+03
-8.401884283409999625e+03
-8.401989815700000690e+03
-8.402036028160000569e+03
-8.402022896439999386e+03
-8.402085717129999466e+03
-8.402159195180000097e+03
-8.401246155819999331e+03
-8.401357224530000167e+03
-8.401571149850000438e+03
-8.401780734410000150e+03
-8.402013549970000895e+03
-8.402235522310000306e+03
-8.402358708120000301e+03
-8.402414000999999189e+03
-8.402441385669999363e+03
-8.402458241779999298e+03
-8.402696581039999728e+03
-8.399222818079999342e+03
-8.399313330540000607e+03
-8.399470826419999867e+03
-8.399642309639999439e+03
-8.399863980509999237e+03
-8.399959559650000301e+03
-8.400089314299999387e+03
-8.400150131640000836e+03
-8.400180895449999298e+03
-8.400251590980000401e+03
-8.400399676020000697e+03
-8.399022027749999324e+03
-8.399071303489999991e+03
-8.399218909269999131e+03
-8.399287510079999265e+03
-8.399335419720000573e+03
-8.399389077919999181e+03
-8.399426324219999515e+03
-8.399422334849999970e+03
-8.399505971380000119e+03
-8.399497815310000078e+03
-8.399428896909999821e+03
-8.400035830729999361e+03
-8.400144755670000450e+03
-8.400351567030000297e+03
-8.400486922239999330e+03
-8.400763310950000232e+03
-8.400930641200000537e+03
-8.401093752880000466e+03
-8.401298384699999588e+03
-8.401321761540000807e+03
-8.401388808690000587e+03
-8.401596395880000273e+03
-8.404747683859999597e+03
-8.404755286839999826e+03
-8.404747239230000559e+03
-8.404727117349999389e+03
-8.404712598730000536e+03
-8.404723637499999313e+03
-8.404756794330000048e+03
-8.404748075890000109e+03
-8.404742235409999921e+03
-8.404693594480000684e+03
-8.404658812449999459e+03
-8.395564697359999627e+03
-8.395713007660000585e+03
-8.396109722670000338e+03
-8.396383584450000853e+03
-8.396595430490000581e+03
-8.396931286650000402e+03
-8.397045525310000812e+03
-8.397147359099999449e+03
-8.397386408180000217e+03
-8.397397156920000270e+03
-8.397544584720000785e+03
-8.401884093829999983e+03
-8.401943572090000089e+03
-8.402064813549999599e+03
-8.402216492010000366e+03
-8.402360421800000040e+03
-8.402458553340000435e+03
-8.402482752730000357e+03
-8.402367779890000747e+03
-8.402336012300000220e+03
-8.402380326840000635e+03
-8.402449557940000886e+03
-8.398537441559999934e+03
-8.398588732050000544e+03
-8.398612759089999599e+03
-8.398680861839999125e+03
-8.398743756469999425e+03
-8.398815274599999611e+03
-8.398966393619999508e+03
-8.399015365569999631e+03
-8.399065079019999757e+03
-8.399149676479999471e+03
-8.399139060569999856e+03
