                                                                                     
                             WELCOME TO ABACUS v3.0                                  
                                                                                     
               'Atomic-orbital Based Ab-initio Computation at UStc'                  
                                                                                     
                     Website: http://abacus.ustc.edu.cn/                             
                                                                                     
    Version: Parallel, in development
    Processor Number is 16
    Start Time is Mon May 22 14:16:29 2023
                                                                                     
 ------------------------------------------------------------------------------------

 READING GENERAL INFORMATION
                           global_out_dir = OUT.ABACUS/
                           global_in_card = INPUT
                               pseudo_dir = 
                              orbital_dir = 
                                    DRANK = 1
                                    DSIZE = 16
                                   DCOLOR = 1
                                    GRANK = 1
                                    GSIZE = 1
 The esolver type has been set to : ksdft_lcao




 >>>>>>>>>>>>>>>>>>>>>>>>>>>>>>>>>>>>>>>>>>>>>>>>>>>>>>>>>>>>>>>>>>>>>>
 |                                                                    |
 | Reading atom information in unitcell:                              |
 | From the input file and the structure file we know the number of   |
 | different elments in this unitcell, then we list the detail        |
 | information for each element, especially the zeta and polar atomic |
 | orbital number for each element. The total atom number is counted. |
 | We calculate the nearest atom distance for each atom and show the  |
 | Cartesian and Direct coordinates for each atom. We list the file   |
 | address for atomic orbitals. The volume and the lattice vectors    |
 | in real and reciprocal space is also shown.                        |
 |                                                                    |
 <<<<<<<<<<<<<<<<<<<<<<<<<<<<<<<<<<<<<<<<<<<<<<<<<<<<<<<<<<<<<<<<<<<<<<




 READING UNITCELL INFORMATION
                                    ntype = 2
                 atom label for species 1 = Si
                 atom label for species 2 = C
                  lattice constant (Bohr) = 1.88973
              lattice constant (Angstrom) = 1

 READING ATOM TYPE 1
                               atom label = Si
                      L=0, number of zeta = 3
                      L=1, number of zeta = 3
                      L=2, number of zeta = 2
             number of atom for this type = 36
                      start magnetization = FALSE
                      start magnetization = FALSE
                      start magnetization = FALSE
                      start magnetization = FALSE
                      start magnetization = FALSE
                      start magnetization = FALSE
                      start magnetization = FALSE
                      start magnetization = FALSE
                      start magnetization = FALSE
                      start magnetization = FALSE
                      start magnetization = FALSE
                      start magnetization = FALSE
                      start magnetization = FALSE
                      start magnetization = FALSE
                      start magnetization = FALSE
                      start magnetization = FALSE
                      start magnetization = FALSE
                      start magnetization = FALSE
                      start magnetization = FALSE
                      start magnetization = FALSE
                      start magnetization = FALSE
                      start magnetization = FALSE
                      start magnetization = FALSE
                      start magnetization = FALSE
                      start magnetization = FALSE
                      start magnetization = FALSE
                      start magnetization = FALSE
                      start magnetization = FALSE
                      start magnetization = FALSE
                      start magnetization = FALSE
                      start magnetization = FALSE
                      start magnetization = FALSE
                      start magnetization = FALSE
                      start magnetization = FALSE
                      start magnetization = FALSE
                      start magnetization = FALSE

 READING ATOM TYPE 2
                               atom label = C
                      L=0, number of zeta = 3
                      L=1, number of zeta = 3
                      L=2, number of zeta = 2
             number of atom for this type = 36
                      start magnetization = FALSE
                      start magnetization = FALSE
                      start magnetization = FALSE
                      start magnetization = FALSE
                      start magnetization = FALSE
                      start magnetization = FALSE
                      start magnetization = FALSE
                      start magnetization = FALSE
                      start magnetization = FALSE
                      start magnetization = FALSE
                      start magnetization = FALSE
                      start magnetization = FALSE
                      start magnetization = FALSE
                      start magnetization = FALSE
                      start magnetization = FALSE
                      start magnetization = FALSE
                      start magnetization = FALSE
                      start magnetization = FALSE
                      start magnetization = FALSE
                      start magnetization = FALSE
                      start magnetization = FALSE
                      start magnetization = FALSE
                      start magnetization = FALSE
                      start magnetization = FALSE
                      start magnetization = FALSE
                      start magnetization = FALSE
                      start magnetization = FALSE
                      start magnetization = FALSE
                      start magnetization = FALSE
                      start magnetization = FALSE
                      start magnetization = FALSE
                      start magnetization = FALSE
                      start magnetization = FALSE
                      start magnetization = FALSE
                      start magnetization = FALSE
                      start magnetization = FALSE

                        TOTAL ATOM NUMBER = 72

 CARTESIAN COORDINATES ( UNIT = 1.88973 Bohr ).
         atom                   x                   y                   z                 mag                  vx                  vy                  vz
     tauc_Si1    -0.0205514131396       1.79983764641       2.48842349651                   0                   0                   0                   0
     tauc_Si2       3.01694568353       7.14980731981       2.42508463672                   0                   0                   0                   0
     tauc_Si3      -3.12830633563       7.09754543149       2.40970999386                   0                   0                   0                   0
     tauc_Si4       4.54412767867       6.30742256588       4.95199396705                   0                   0                   0                   0
     tauc_Si5       1.51777437838      0.971909822637       5.02654684093                   0                   0                   0                   0
     tauc_Si6       7.66625098616       1.01860700652       5.02672026423                   0                   0                   0                   0
     tauc_Si7    -0.0177792524675       1.87773018303       7.53549606559                   0                   0                   0                   0
     tauc_Si8       3.00043002333       7.22286846005       7.46343382043                   0                   0                   0                   0
     tauc_Si9      -3.13603402119       7.17491756402       7.45612779339                   0                   0                   0                   0
    tauc_Si10       4.56077495958       6.10625551969      0.110604882843                   0                   0                   0                   0
    tauc_Si11       1.54105879229      0.764139554538      0.175058984897                   0                   0                   0                   0
    tauc_Si12       7.67734780078       0.81317099095      0.179559854531                   0                   0                   0                   0
    tauc_Si13      -1.57414347229       4.44680138271       2.45712150219                   0                   0                   0                   0
    tauc_Si14       1.49061013073       4.49156699516       2.46457082542                   0                   0                   0                   0
    tauc_Si15    -0.0441202349863       7.12451321713       2.42749980471                   0                   0                   0                   0
    tauc_Si16       6.10346242015       3.66922639554       5.00554326221                   0                   0                   0                   0
    tauc_Si17       3.02669933881       3.64089813764       4.98896610322                   0                   0                   0                   0
    tauc_Si18       4.58681598735      0.990051282928        5.0188664204                   0                   0                   0                   0
    tauc_Si19      -1.58066511793       4.51702764046       7.47341388966                   0                   0                   0                   0
    tauc_Si20       1.49352716521       4.54659349428       7.49014782351                   0                   0                   0                   0
    tauc_Si21     -0.061401381912       7.19024416264        7.4550371123                   0                   0                   0                   0
    tauc_Si22       6.12027523802        3.4542282156      0.142023324146                   0                   0                   0                   0
    tauc_Si23       3.05509157198       3.43274086885      0.137930367842                   0                   0                   0                   0
    tauc_Si24       4.61489613165      0.792667835119      0.173948504457                   0                   0                   0                   0
    tauc_Si25        3.0507937133        1.8301718734       2.48732671413                   0                   0                   0                   0
    tauc_Si26       6.10906001454       1.85945457787       2.48563980482                   0                   0                   0                   0
    tauc_Si27       4.55990857099       4.50192470964       2.46313904166                   0                   0                   0                   0
    tauc_Si28       1.48256838978       6.28544072524       4.94652986054                   0                   0                   0                   0
    tauc_Si29      -1.58634145305       6.26272119573       4.93646406218                   0                   0                   0                   0
    tauc_Si30     -0.037420018887       3.61960097656        4.9855728812                   0                   0                   0                   0
    tauc_Si31       3.04520983537       1.89286995924       7.53303120675                   0                   0                   0                   0
    tauc_Si32       6.12947337336        1.9267036264       7.54153514333                   0                   0                   0                   0
    tauc_Si33       4.55279679579       4.57273191348       7.49684518763                   0                   0                   0                   0
    tauc_Si34       1.49341020752       6.08080782583     0.0934607576575                   0                   0                   0                   0
    tauc_Si35      -1.56730061322        6.0576365476      0.107885955995                   0                   0                   0                   0
    tauc_Si36    -0.0156552078144       3.41052520229      0.126671819992                   0                   0                   0                   0
      tauc_C1    -0.0216127040858        1.8316410286       4.37607821816                   0                   0                   0                   0
      tauc_C2       3.00385038175       7.18288281265       4.31261074948                   0                   0                   0                   0
      tauc_C3      -3.11671258508       7.13510043691       4.30862602865                   0                   0                   0                   0
      tauc_C4       4.54448852796       6.32643325456        6.8392612467                   0                   0                   0                   0
      tauc_C5       1.51854345493      0.996237030483       6.91354604674                   0                   0                   0                   0
      tauc_C6       7.65451128767       1.05106567501       6.93054222016                   0                   0                   0                   0
      tauc_C7    -0.0294854367333        1.9145803404       9.42274919857                   0                   0                   0                   0
      tauc_C8       2.99370375977       7.23228871961       9.34949165468                   0                   0                   0                   0
      tauc_C9      -3.13736090775       7.19469162403       9.33839269447                   0                   0                   0                   0
     tauc_C10       4.54789794381       6.26098997858       1.82477016314                   0                   0                   0                   0
     tauc_C11       1.52071513194      0.929371873422       1.87251571806                   0                   0                   0                   0
     tauc_C12       7.67506012698      0.983301477717       1.89455631942                   0                   0                   0                   0
     tauc_C13      -1.57657440438        4.4784143491       4.34441692106                   0                   0                   0                   0
     tauc_C14        1.5031947186       4.49287052091       4.35016696456                   0                   0                   0                   0
     tauc_C15    -0.0618983260451       7.14683478637       4.31092571169                   0                   0                   0                   0
     tauc_C16       6.09957580344       3.69203795273       6.88516415239                   0                   0                   0                   0
     tauc_C17       3.02449903354       3.66632213593       6.87073823005                   0                   0                   0                   0
     tauc_C18       4.59863259868       1.01767365421       6.91489092583                   0                   0                   0                   0
     tauc_C19       -1.5806246514       4.54941305574        9.3815482753                   0                   0                   0                   0
     tauc_C20       1.49000348397       4.56562973673       9.37141288017                   0                   0                   0                   0
     tauc_C21    -0.0734675336784       7.22507329197       9.34690607088                   0                   0                   0                   0
     tauc_C22       6.10826962631        3.6125896644       1.84697189057                   0                   0                   0                   0
     tauc_C23       3.03925643709       3.58914733144       1.85874781312                   0                   0                   0                   0
     tauc_C24       4.58525383734      0.938009082107       1.88036998952                   0                   0                   0                   0
     tauc_C25       3.05281171863       1.85542673216       4.38367072216                   0                   0                   0                   0
     tauc_C26       6.11519350013       1.87583528145       4.38708294687                   0                   0                   0                   0
     tauc_C27       4.57441822406       4.52278002059       4.35717376367                   0                   0                   0                   0
     tauc_C28       1.48487153662       6.30742460535        6.8407234671                   0                   0                   0                   0
     tauc_C29      -1.59954570462       6.27354898948        6.8356378973                   0                   0                   0                   0
     tauc_C30    -0.0372174332033       3.63231808764       6.87224587165                   0                   0                   0                   0
     tauc_C31       3.03590086368       1.92254354167       9.42241854471                   0                   0                   0                   0
     tauc_C32       6.10395792759        1.9525198448       9.42063897761                   0                   0                   0                   0
     tauc_C33        4.5576022624       4.59800556137       9.38568674701                   0                   0                   0                   0
     tauc_C34       1.48307698777       6.23758577263       1.81825347863                   0                   0                   0                   0
     tauc_C35      -1.57589647403       6.21444287949       1.81465978891                   0                   0                   0                   0
     tauc_C36    -0.0314016763183       3.56269043063       1.84901545993                   0                   0                   0                   0


 READING ORBITAL FILE NAMES FOR LCAO
 orbital file: Si_gga_9au_100Ry_3s3p2d.orb
 orbital file: C_gga_9au_100Ry_3s3p2d.orb

                          Volume (Bohr^3) = 4717.8202074
                             Volume (A^3) = 699.107990324

 Lattice vectors: (Cartesian coordinate: in unit of a_0)
       +9.01653095727                  +0                  +0
       -4.63221741656      +7.84448127566                  +0
     -0.0261821794106     +0.273930671718      +9.88418978633
 Reciprocal vectors: (Cartesian coordinate: in unit of 2 pi/a_0)
      +0.110907399391    +0.0654915435491   -0.00152125216254
                   +0     +0.127478155006    -0.0035329326313
                   +0                  -0     +0.101171671287




 >>>>>>>>>>>>>>>>>>>>>>>>>>>>>>>>>>>>>>>>>>>>>>>>>>>>>>>>>>>>>>>>>>>>>>
 |                                                                    |
 | Reading pseudopotentials files:                                    |
 | The pseudopotential file is in UPF format. The 'NC' indicates that |
 | the type of pseudopotential is 'norm conserving'. Functional of    |
 | exchange and correlation is decided by 4 given parameters in UPF   |
 | file.  We also read in the 'core correction' if there exists.      |
 | Also we can read the valence electrons number and the maximal      |
 | angular momentum used in this pseudopotential. We also read in the |
 | trail wave function, trail atomic density and local-pseudopotential|
 | on logrithmic grid. The non-local pseudopotential projector is also|
 | read in if there is any.                                           |
 |                                                                    |
 <<<<<<<<<<<<<<<<<<<<<<<<<<<<<<<<<<<<<<<<<<<<<<<<<<<<<<<<<<<<<<<<<<<<<<




                PAO radial cut off (Bohr) = 15

 Read in pseudopotential file is Si_ONCV_PBE-1.0.upf
                     pseudopotential type = NC
          exchange-correlation functional = PBE
                 nonlocal core correction = 0
                        valence electrons = 4
                                     lmax = 1
                           number of zeta = 0
                     number of projectors = 4
                           L of projector = 0
                           L of projector = 0
                           L of projector = 1
                           L of projector = 1
                PAO radial cut off (Bohr) = 15

 Read in pseudopotential file is C_ONCV_PBE-1.0.upf
                     pseudopotential type = NC
          exchange-correlation functional = PBE
                 nonlocal core correction = 0
                        valence electrons = 4
                                     lmax = 1
                           number of zeta = 0
                     number of projectors = 4
                           L of projector = 0
                           L of projector = 0
                           L of projector = 1
                           L of projector = 1
     initial pseudo atomic orbital number = 0
                                   NLOCAL = 1584




 >>>>>>>>>>>>>>>>>>>>>>>>>>>>>>>>>>>>>>>>>>>>>>>>>>>>>>>>>>>>>>>>>>>>>>
 |                                                                    |
 | Setup plane waves of charge/potential:                             |
 | Use the energy cutoff and the lattice vectors to generate the      |
 | dimensions of FFT grid. The number of FFT grid on each processor   |
 | is 'nrxx'. The number of plane wave basis in reciprocal space is   |
 | different for charege/potential and wave functions. We also set    |
 | the 'sticks' for the parallel of FFT. The number of plane waves    |
 | is 'npw' in each processor.                                        |
 <<<<<<<<<<<<<<<<<<<<<<<<<<<<<<<<<<<<<<<<<<<<<<<<<<<<<<<<<<<<<<<<<<<<<<





 SETUP THE PLANE WAVE BASIS
 energy cutoff for charge/potential (unit:Ry) = 400
          [fft grid for charge/potential] = 120, 120, 120
                      [fft grid division] = 2, 2, 2
      [big fft grid for charge/potential] = 60, 60, 60
                                     nbxx = 14400
                                     nrxx = 115200

 SETUP PLANE WAVES FOR CHARGE/POTENTIAL
                    number of plane waves = 637395
                         number of sticks = 8041

 PARALLEL PW FOR CHARGE/POTENTIAL
     PROC   COLUMNS(POT)             PW
        1            502          39836
        2            502          39836
        3            502          39836
        4            502          39836
        5            502          39836
        6            503          39839
        7            503          39839
        8            503          39839
        9            503          39839
       10            503          39839
       11            502          39836
       12            502          39836
       13            503          39838
       14            503          39838
       15            503          39836
       16            503          39836
 --------------- sum -------------------
       16           8041         637395
                            number of |g| = 39426
                                  max |g| = 36.1824320081
                                  min |g| = 0.0161468380979

 SETUP THE ELECTRONS NUMBER
            electron number of element Si = 4
      total electron number of element Si = 144
             electron number of element C = 4
       total electron number of element C = 144
            AUTOSET number of electrons:  = 288
 DONE : SETUP UNITCELL Time : 0.112706932894 (SEC)





 >>>>>>>>>>>>>>>>>>>>>>>>>>>>>>>>>>>>>>>>>>>>>>>>>>>>>>>>>>>>>>>>>>>>>>
 |                                                                    |
 | Setup K-points                                                     |
 | We setup the k-points according to input parameters.               |
 | The reduced k-points are set according to symmetry operations.     |
 | We treat the spin as another set of k-points.                      |
 |                                                                    |
 <<<<<<<<<<<<<<<<<<<<<<<<<<<<<<<<<<<<<<<<<<<<<<<<<<<<<<<<<<<<<<<<<<<<<<





 SETUP K-POINTS
                                    nspin = 1
                   Input type of k points = Monkhorst-Pack(Gamma)
                                   nkstot = 64
                               nkstot_ibz = 36
      IBZ             DirectX             DirectY             DirectZ              Weight    ibz2bz
        1                   0                   0                   0            0.015625         0
        2                0.75                   0                   0             0.03125         1
        3                 0.5                   0                   0            0.015625         2
        4                   0                0.75                   0             0.03125         4
        5                0.75                0.75                   0             0.03125         5
        6                 0.5                0.75                   0             0.03125         6
        7                0.25                0.75                   0             0.03125         7
        8                   0                 0.5                   0            0.015625         8
        9                0.75                 0.5                   0             0.03125         9
       10                 0.5                 0.5                   0            0.015625        10
       11                   0                   0                0.75             0.03125        16
       12                0.75                   0                0.75             0.03125        17
       13                 0.5                   0                0.75             0.03125        18
       14                0.25                   0                0.75             0.03125        19
       15                   0                0.75                0.75             0.03125        20
       16                0.75                0.75                0.75             0.03125        21
       17                 0.5                0.75                0.75             0.03125        22
       18                0.25                0.75                0.75             0.03125        23
       19                   0                 0.5                0.75             0.03125        24
       20                0.75                 0.5                0.75             0.03125        25
       21                 0.5                 0.5                0.75             0.03125        26
       22                0.25                 0.5                0.75             0.03125        27
       23                   0                0.25                0.75             0.03125        28
       24                0.75                0.25                0.75             0.03125        29
       25                 0.5                0.25                0.75             0.03125        30
       26                0.25                0.25                0.75             0.03125        31
       27                   0                   0                 0.5            0.015625        32
       28                0.75                   0                 0.5             0.03125        33
       29                 0.5                   0                 0.5            0.015625        34
       30                   0                0.75                 0.5             0.03125        36
       31                0.75                0.75                 0.5             0.03125        37
       32                 0.5                0.75                 0.5             0.03125        38
       33                0.25                0.75                 0.5             0.03125        39
       34                   0                 0.5                 0.5            0.015625        40
       35                0.75                 0.5                 0.5             0.03125        41
       36                 0.5                 0.5                 0.5            0.015625        42
                               nkstot now = 36

  KPOINTS            DIRECT_X            DIRECT_Y            DIRECT_Z              WEIGHT
        1                   0                   0                   0            0.015625
        2                0.75                   0                   0             0.03125
        3                 0.5                   0                   0            0.015625
        4                   0                0.75                   0             0.03125
        5                0.75                0.75                   0             0.03125
        6                 0.5                0.75                   0             0.03125
        7                0.25                0.75                   0             0.03125
        8                   0                 0.5                   0            0.015625
        9                0.75                 0.5                   0             0.03125
       10                 0.5                 0.5                   0            0.015625
       11                   0                   0                0.75             0.03125
       12                0.75                   0                0.75             0.03125
       13                 0.5                   0                0.75             0.03125
       14                0.25                   0                0.75             0.03125
       15                   0                0.75                0.75             0.03125
       16                0.75                0.75                0.75             0.03125
       17                 0.5                0.75                0.75             0.03125
       18                0.25                0.75                0.75             0.03125
       19                   0                 0.5                0.75             0.03125
       20                0.75                 0.5                0.75             0.03125
       21                 0.5                 0.5                0.75             0.03125
       22                0.25                 0.5                0.75             0.03125
       23                   0                0.25                0.75             0.03125
       24                0.75                0.25                0.75             0.03125
       25                 0.5                0.25                0.75             0.03125
       26                0.25                0.25                0.75             0.03125
       27                   0                   0                 0.5            0.015625
       28                0.75                   0                 0.5             0.03125
       29                 0.5                   0                 0.5            0.015625
       30                   0                0.75                 0.5             0.03125
       31                0.75                0.75                 0.5             0.03125
       32                 0.5                0.75                 0.5             0.03125
       33                0.25                0.75                 0.5             0.03125
       34                   0                 0.5                 0.5            0.015625
       35                0.75                 0.5                 0.5             0.03125
       36                 0.5                 0.5                 0.5            0.015625

           k-point number in this process = 36
       minimum distributed K point number = 36

  KPOINTS         CARTESIAN_X         CARTESIAN_Y         CARTESIAN_Z              WEIGHT
        1                   0                   0                   0             0.03125
        2     0.0831805495433     0.0491186576618    -0.0011409391219              0.0625
        3     0.0554536996955     0.0327457717745   -0.00076062608127             0.03125
        4                   0     0.0956086162545   -0.00264969947348              0.0625
        5     0.0831805495433      0.144727273916   -0.00379063859538              0.0625
        6     0.0554536996955      0.128354388029   -0.00341032555475              0.0625
        7     0.0277268498478      0.111981502142   -0.00303001251411              0.0625
        8                   0      0.063739077503   -0.00176646631565             0.03125
        9     0.0831805495433      0.112857735165   -0.00290740543756              0.0625
       10     0.0554536996955     0.0964848492776   -0.00252709239692             0.03125
       11                   0                   0     0.0758787534652              0.0625
       12     0.0831805495433     0.0491186576618     0.0747378143433              0.0625
       13     0.0554536996955     0.0327457717745     0.0751181273839              0.0625
       14     0.0277268498478     0.0163728858873     0.0754984404245              0.0625
       15                   0     0.0956086162545     0.0732290539917              0.0625
       16     0.0831805495433      0.144727273916     0.0720881148698              0.0625
       17     0.0554536996955      0.128354388029     0.0724684279104              0.0625
       18     0.0277268498478      0.111981502142      0.072848740951              0.0625
       19                   0      0.063739077503     0.0741122871495              0.0625
       20     0.0831805495433      0.112857735165     0.0729713480276              0.0625
       21     0.0554536996955     0.0964848492776     0.0733516610682              0.0625
       22     0.0277268498478     0.0801119633903     0.0737319741089              0.0625
       23                   0     0.0318695387515     0.0749955203073              0.0625
       24     0.0831805495433     0.0809881964133     0.0738545811854              0.0625
       25     0.0554536996955      0.064615310526     0.0742348942261              0.0625
       26     0.0277268498478     0.0482424246388     0.0746152072667              0.0625
       27                   0                   0     0.0505858356434             0.03125
       28     0.0831805495433     0.0491186576618     0.0494448965215              0.0625
       29     0.0554536996955     0.0327457717745     0.0498252095622             0.03125
       30                   0     0.0956086162545       0.04793613617              0.0625
       31     0.0831805495433      0.144727273916     0.0467951970481              0.0625
       32     0.0554536996955      0.128354388029     0.0471755100887              0.0625
       33     0.0277268498478      0.111981502142     0.0475558231293              0.0625
       34                   0      0.063739077503     0.0488193693278             0.03125
       35     0.0831805495433      0.112857735165     0.0476784302059              0.0625
       36     0.0554536996955     0.0964848492776     0.0480587432465             0.03125

  KPOINTS            DIRECT_X            DIRECT_Y            DIRECT_Z              WEIGHT
        1                   0                   0                   0             0.03125
        2                0.75                   0                   0              0.0625
        3                 0.5                   0                   0             0.03125
        4                   0                0.75                   0              0.0625
        5                0.75                0.75                   0              0.0625
        6                 0.5                0.75                   0              0.0625
        7                0.25                0.75                   0              0.0625
        8                   0                 0.5                   0             0.03125
        9                0.75                 0.5                   0              0.0625
       10                 0.5                 0.5                   0             0.03125
       11                   0                   0                0.75              0.0625
       12                0.75                   0                0.75              0.0625
       13                 0.5                   0                0.75              0.0625
       14                0.25                   0                0.75              0.0625
       15                   0                0.75                0.75              0.0625
       16                0.75                0.75                0.75              0.0625
       17                 0.5                0.75                0.75              0.0625
       18                0.25                0.75                0.75              0.0625
       19                   0                 0.5                0.75              0.0625
       20                0.75                 0.5                0.75              0.0625
       21                 0.5                 0.5                0.75              0.0625
       22                0.25                 0.5                0.75              0.0625
       23                   0                0.25                0.75              0.0625
       24                0.75                0.25                0.75              0.0625
       25                 0.5                0.25                0.75              0.0625
       26                0.25                0.25                0.75              0.0625
       27                   0                   0                 0.5             0.03125
       28                0.75                   0                 0.5              0.0625
       29                 0.5                   0                 0.5             0.03125
       30                   0                0.75                 0.5              0.0625
       31                0.75                0.75                 0.5              0.0625
       32                 0.5                0.75                 0.5              0.0625
       33                0.25                0.75                 0.5              0.0625
       34                   0                 0.5                 0.5             0.03125
       35                0.75                 0.5                 0.5              0.0625
       36                 0.5                 0.5                 0.5             0.03125
 DONE : INIT K-POINTS Time : 0.122706365178 (SEC)

                           occupied bands = 144
                                   NLOCAL = 1584
                                   NBANDS = 173
                                   NBANDS = 173




 >>>>>>>>>>>>>>>>>>>>>>>>>>>>>>>>>>>>>>>>>>>>>>>>>>>>>>>>>>>>>>>>>>>>>>
 |                                                                    |
 | Setup numerical orbitals:                                          |
 | This part setup: numerical atomic orbitals, non-local projectors   |
 | and neutral potential (1D). The atomic orbitals information        |
 | including the radius, angular momentum and zeta number.            |
 | The neutral potential is the sum of local part of pseudopotential  |
 | and potential given by atomic charge, they will cancel out beyond  |
 | a certain radius cutoff, because the Z/r character.                |
 |                                                                    |
 <<<<<<<<<<<<<<<<<<<<<<<<<<<<<<<<<<<<<<<<<<<<<<<<<<<<<<<<<<<<<<<<<<<<<<





 SETUP ONE DIMENSIONAL ORBITALS/POTENTIAL
                        delta k  (1/Bohr) = 0.01
                        delta r    (Bohr) = 0.01
                        dr_uniform (Bohr) = 0.001
                        rmax       (Bohr) = 30
                                    kmesh = 1005
      ORBITAL  L  N      nr      dr    RCUT  CHECK_UNIT    NEW_UNIT
            1  0  0     901    0.01       9           1           1
            2  0  1     901    0.01       9           1           1
            3  0  2     901    0.01       9           1           1
            4  1  0     901    0.01       9           1           1
            5  1  1     901    0.01       9           1           1
            6  1  2     901    0.01       9           1           1
            7  2  0     901    0.01       9           1           1
            8  2  1     901    0.01       9           1           1
      ORBITAL  L  N      nr      dr    RCUT  CHECK_UNIT    NEW_UNIT
            1  0  0     901    0.01       9           1           1
            2  0  1     901    0.01       9           1           1
            3  0  2     901    0.01       9           1           1
            4  1  0     901    0.01       9           1           1
            5  1  1     901    0.01       9           1           1
            6  1  2     901    0.01       9           1           1
            7  2  0     901    0.01       9           1           1
            8  2  1     901    0.01       9           1           1
 SET NONLOCAL PSEUDOPOTENTIAL PROJECTORS
 SET NONLOCAL PSEUDOPOTENTIAL PROJECTORS
 max number of nonlocal projetors among all species is 4

 SETUP THE TWO-CENTER INTEGRATION TABLES

 SETUP THE DIVISION OF H/S MATRIX
 divide the H&S matrix using 2D block algorithms.
                                     nb2d = 64
 parameter nb2d is too large: nb2d = 64
 reset nb2d to value 1, this set would make the program keep working but maybe get slower during diagonalization.
                  trace_loc_row dimension = 1584
                  trace_loc_col dimension = 1584
                                     nloc = 156816

 -------------------------------------------
 STEP OF MOLECULAR DYNAMICS : 0
 -------------------------------------------
              searching radius is (Bohr)) = 25.3
         searching radius unit is (Bohr)) = 1.89
1713824
                                 init_chg = atomic
 DONE : INIT SCF Time : 10.326 (SEC)


 LCAO ALGORITHM --------------- ION=   1  ELEC=   1--------------------------------

 Density error is 0.281874215351

 LCAO ALGORITHM --------------- ION=   1  ELEC=   2--------------------------------

 Density error is 0.142994141016

 LCAO ALGORITHM --------------- ION=   1  ELEC=   3--------------------------------

 Density error is 0.0342321385361

 LCAO ALGORITHM --------------- ION=   1  ELEC=   4--------------------------------

 Density error is 0.0649042871487

 LCAO ALGORITHM --------------- ION=   1  ELEC=   5--------------------------------

 Density error is 0.0127143350076

 LCAO ALGORITHM --------------- ION=   1  ELEC=   6--------------------------------

 Density error is 0.00555048226039

 LCAO ALGORITHM --------------- ION=   1  ELEC=   7--------------------------------

 Density error is 0.00226220108094

 LCAO ALGORITHM --------------- ION=   1  ELEC=   8--------------------------------

 Density error is 0.00182666938183

 LCAO ALGORITHM --------------- ION=   1  ELEC=   9--------------------------------

 Density error is 0.000977268979295

 LCAO ALGORITHM --------------- ION=   1  ELEC=  10--------------------------------

 Density error is 0.000281465668094

 LCAO ALGORITHM --------------- ION=   1  ELEC=  11--------------------------------

 Density error is 0.000165932795848

 LCAO ALGORITHM --------------- ION=   1  ELEC=  12--------------------------------

 Density error is 6.63105928998e-05

 LCAO ALGORITHM --------------- ION=   1  ELEC=  13--------------------------------

 Density error is 2.1557974709e-05

 LCAO ALGORITHM --------------- ION=   1  ELEC=  14--------------------------------

 Density error is 8.9403604085e-06

 LCAO ALGORITHM --------------- ION=   1  ELEC=  15--------------------------------

 Density error is 1.00136814604e-05

 LCAO ALGORITHM --------------- ION=   1  ELEC=  16--------------------------------

 Density error is 2.54032716265e-06

 LCAO ALGORITHM --------------- ION=   1  ELEC=  17--------------------------------

 Density error is 1.29775968113e-06

 LCAO ALGORITHM --------------- ION=   1  ELEC=  18--------------------------------

 Density error is 9.96126084985e-07

 charge density convergence is achieved
 final etot is -9444.7305262 eV

 ><><><><><><><><><><><><><><><><><><><><><><><><><><><><><><><><><><><

    TOTAL-FORCE (eV/Angstrom)

 ><><><><><><><><><><><><><><><><><><><><><><><><><><><><><><><><><><><

     atom              x              y              z
      Si1           +4.164726           +2.779127          +2.2809885
      Si2         -0.71270991          -2.3240134          +1.8923916
      Si3          +3.8392584        +0.099833585          +3.1095983
      Si4          -2.8843828           -2.026365         +0.91200151
      Si5         +0.63389716          +1.3237803         -0.29340466
      Si6          -3.8096777         -0.92216199         +0.88875193
      Si7          +3.4511482          +2.3735003          +1.2041649
      Si8         -0.38247845          -2.5196021         +0.99028106
      Si9          +3.4574852         -0.39185574          +1.8942506
     Si10          -3.1024034          -2.1085577          -3.1646752
     Si11         +0.39905753          +1.5199726           -4.741712
     Si12          -3.4270834         -0.76181557          -3.4344912
     Si13          +3.6182073          +1.9876259           +1.842338
     Si14        +0.050075266         -0.63595582         +0.61271094
     Si15         -0.25875906          -2.4024182          +1.7297011
     Si16          -3.3405691          -2.2514481         +0.80475298
     Si17          +0.4082299         -0.18931094        -0.056555774
     Si18        +0.052956931          +1.0550654          -0.1211544
     Si19           +3.851766          +2.3606347          +1.6994173
     Si20         -0.14955778       -0.0024324867        -0.034651944
     Si21          -0.1061772          -2.1290333          +0.9218037
     Si22          -3.2154367          -1.5315479          -3.3254418
     Si23        -0.034287462         +0.21213084          -3.9509401
     Si24         -0.33584646          +1.1094339           -4.705708
     Si25         -0.13938181        +0.070957982          +1.0279257
     Si26         -0.35675326            -0.29491          +1.3029002
     Si27         -0.37783865         -0.57436758         +0.97543872
     Si28       +0.0096336048         -0.36029282         +0.18584746
     Si29         +0.48735805         -0.05693989         +0.46451938
     Si30         +0.64716967        +0.096839356        +0.085524662
     Si31          +0.1072346         +0.47025752        +0.035265379
     Si32          -1.0102815        +0.055393342        +0.095457193
     Si33         -0.53942992          -0.3103024         +0.18192961
     Si34        -0.057779431         -0.26942375          -3.7361616
     Si35         +0.50050055        +0.095041654          -4.1850196
     Si36         +0.55818028          +0.6529301          -3.5437678
       C1          +3.6147444          +2.4149936          -1.1966997
       C2         -0.24391139           -1.513309         +0.30374145
       C3          +2.8166528         +0.61074148           -1.003821
       C4          -3.4530391            -1.84267          -1.1116019
       C5         +0.35632125          +2.2857439         -0.96110041
       C6           -3.338579         -0.20728521          -2.6250933
       C7          +3.4000708          +1.8571692          -1.7493019
       C8         -0.28605577         -0.91482411         +0.11254177
       C9          +3.2291765         +0.89673075          -1.0800083
      C10          -3.4764001          -2.2710104           +2.263706
      C11         +0.42780358          +1.9496911          +3.2227954
      C12          -4.4571659         -0.80503536         +0.86675455
      C13          +3.4295329          +1.9639043          -1.3376541
      C14         -0.38408847         +0.30686454          -0.1366319
      C15         +0.13046253          -1.0885685          +0.1537176
      C16          -3.8716145          -2.4693722          -1.3923412
      C17          +0.2635549         -0.22033257         +0.13508472
      C18        -0.073053105          +2.1397445          -1.1012634
      C19          +3.2814492           +1.912545          -1.8448865
      C20         -0.13097702         +0.10010826         -0.17621674
      C21         +0.08788392          -1.1839075         -0.18915451
      C22          -3.7120028          -2.0349922          +2.5947772
      C23        -0.011971706         +0.13261654          +3.3381155
      C24         +0.23807128          +2.3245003           +2.739317
      C25         -0.26069636         +0.24600521        -0.069421137
      C26         -0.37947114         +0.22455721        +0.069318447
      C27         -0.75474423         -0.07538874        -0.073290959
      C28        -0.027364619       +0.0066224597         -0.04804699
      C29         +0.65679309         +0.43852815        +0.046782893
      C30         +0.48250151         +0.28809834        +0.088868887
      C31        +0.073674791         +0.26413489         -0.38295263
      C32         -0.23618307        -0.036283143        -0.019590815
      C33          -0.5252048         -0.25504741         -0.20709157
      C34         +0.32487659        +0.060123704          +3.3410175
      C35         +0.30726824        +0.042695745          +3.9865239
      C36         +0.50563413         +0.25213763          +3.5988294


 ><><><><><><><><><><><><><><><><><><><><><><><><><><><><><><><><><><><

 TOTAL-STRESS (KBAR)

 ><><><><><><><><><><><><><><><><><><><><><><><><><><><><><><><><><><><

             +254.716381             +83.848755              +2.890462
              +83.848755            +219.850177             -38.231515
               +2.890462             -38.231515            +263.852690
 TOTAL-PRESSURE: +246.139749 KBAR


 ------------------------------------------------------------------------------------------------
 Energy              Potential           Kinetic             Temperature         Pressure (KBAR)     
 -347.08395          -347.08732          +0.0033726584       +10                 +246.27997          
 ------------------------------------------------------------------------------------------------

output Pressure for check!
Virtual Pressure is +246.27997 Kbar 
Virial Term is +246.13975 Kbar 
Kenetic Term is +0.14021608 Kbar 


 ><><><><><><><><><><><><><><><><><><><><><><><><><><><><><><><><><><><

 MD STRESS (KBAR)

 ><><><><><><><><><><><><><><><><><><><><><><><><><><><><><><><><><><><

+254.84593     +83.824257     +2.8916026     
+83.824257     +219.98353     -38.253199     
+2.8916026     -38.253199     +264.01043     



 -------------------------------------------
 STEP OF MOLECULAR DYNAMICS : 1
 -------------------------------------------
 NEW-OLD atomic charge density approx. for the potential !
 searching radius is (Bohr))              = +25.29
 searching radius unit is (Bohr))         = +1.8897261
+1714874
 DONE : INIT SCF Time : +2149.16 (SEC)


 LCAO ALGORITHM --------------- ION=+2    ELEC=+1  --------------------------------

 Density error is +0.000700081256742

 LCAO ALGORITHM --------------- ION=+2    ELEC=+2  --------------------------------

 Density error is +0.000615776609422

 LCAO ALGORITHM --------------- ION=+2    ELEC=+3  --------------------------------

 Density error is +0.000557906620411

 LCAO ALGORITHM --------------- ION=+2    ELEC=+4  --------------------------------

 Density error is +0.000117479125839

 LCAO ALGORITHM --------------- ION=+2    ELEC=+5  --------------------------------

 Density error is +6.45465449913e-05

 LCAO ALGORITHM --------------- ION=+2    ELEC=+6  --------------------------------

 Density error is +2.93163165871e-05

 LCAO ALGORITHM --------------- ION=+2    ELEC=+7  --------------------------------

 Density error is +1.05195423146e-05

 LCAO ALGORITHM --------------- ION=+2    ELEC=+8  --------------------------------

 Density error is +3.60594914765e-06

 LCAO ALGORITHM --------------- ION=+2    ELEC=+9  --------------------------------

 Density error is +2.03625147355e-06

 LCAO ALGORITHM --------------- ION=+2    ELEC=+10 --------------------------------

 Density error is +5.70950521088e-07

 charge density convergence is achieved
 final etot is -9444.95286041 eV

 ><><><><><><><><><><><><><><><><><><><><><><><><><><><><><><><><><><><

    TOTAL-FORCE (eV/Angstrom)

 ><><><><><><><><><><><><><><><><><><><><><><><><><><><><><><><><><><><

 atom    x              y              z              
 Si1     +4.0552933          +2.741777           +2.2162511          
 Si2     -0.71157612         -2.2752343          +1.8792552          
 Si3     +3.7693222          +0.038483521        +3.0754179          
 Si4     -2.8762452          -1.9685819          +0.89057253         
 Si5     +0.63307686         +1.296757           -0.31408075         
 Si6     -3.7897543          -0.92080159         +0.8663731          
 Si7     +3.4008235          +2.352076           +1.174115           
 Si8     -0.40370801         -2.5143295          +0.97634483         
 Si9     +3.4008382          -0.39838829         +1.8683752          
 Si10    -3.0282819          -2.0840141          -3.1584892          
 Si11    +0.39911311         +1.4927521          -4.6557014          
 Si12    -3.3642268          -0.71173481         -3.4159039          
 Si13    +3.542681           +1.9456633          +1.8101719          
 Si14    +0.049881261        -0.63797366         +0.60338339         
 Si15    -0.26027702         -2.3430698          +1.748439           
 Si16    -3.2373103          -2.1816229          +0.73235002         
 Si17    +0.41154456         -0.20159568         -0.090493322        
 Si18    +0.048559988        +1.034472           -0.13822326         
 Si19    +3.76405            +2.297716           +1.6511138          
 Si20    -0.16249934         -0.010996846        -0.025213676        
 Si21    -0.085846862        -2.0575193          +0.91653761         
 Si22    -3.209594           -1.5152556          -3.2456312          
 Si23    -0.038255424        +0.21308033         -3.8492048          
 Si24    -0.36434059         +1.0888974          -4.6158211          
 Si25    -0.12420174         +0.0700376          +1.0460184          
 Si26    -0.36080101         -0.31687444         +1.2996567          
 Si27    -0.38371855         -0.57844984         +0.98529878         
 Si28    +0.026445841        -0.37457999         +0.18675163         
 Si29    +0.49519809         -0.032956491        +0.44804605         
 Si30    +0.66462428         +0.10093344         +0.076601098        
 Si31    +0.091381743        +0.49414907         +0.0088428899       
 Si32    -0.9683514          +0.041031586        +0.076213336        
 Si33    -0.55446225         -0.29792335         +0.13976803         
 Si34    -0.069000027        -0.26254806         -3.6052892          
 Si35    +0.49027889         +0.10675086         -4.0563257          
 Si36    +0.54318013         +0.64450324         -3.4737109          
 C1      +3.5891698          +2.3892956          -1.1524761          
 C2      -0.23552181         -1.5007093          +0.34038758         
 C3      +2.7890314          +0.62534039         -0.9585231          
 C4      -3.3955255          -1.8344629          -1.0791996          
 C5      +0.37671569         +2.2570647          -0.95174419         
 C6      -3.3051411          -0.18820366         -2.5850691          
 C7      +3.3203372          +1.8032147          -1.7016414          
 C8      -0.25744758         -0.89462863         +0.09470002         
 C9      +3.1270387          +0.87626657         -1.0294296          
 C10     -3.3954606          -2.2023741          +2.2387367          
 C11     +0.41257827         +1.9318442          +3.1102929          
 C12     -4.3374495          -0.78787413         +0.88373163         
 C13     +3.3045349          +1.8730031          -1.2649321          
 C14     -0.39472072         +0.30119598         -0.089892282        
 C15     +0.12250207         -1.0602006          +0.15226889         
 C16     -3.7763738          -2.3858647          -1.3163012          
 C17     +0.28106785         -0.22617149         +0.17716593         
 C18     -0.097614425        +2.0623365          -1.0793653          
 C19     +3.2686756          +1.8862283          -1.8242767          
 C20     -0.11638167         +0.11610802         -0.21201891         
 C21     +0.094983564        -1.1491367          -0.18976414         
 C22     -3.6132526          -1.9629978          +2.5379475          
 C23     -0.013267681        +0.1265152          +3.2325899          
 C24     +0.22233401         +2.2714539          +2.6653575          
 C25     -0.26881687         +0.25662924         -0.067661256        
 C26     -0.35927741         +0.22149548         +0.08018431         
 C27     -0.75683184         -0.11321833         -0.068958931        
 C28     -0.015386045        -0.00097455984      -0.058418658        
 C29     +0.64237142         +0.4235684          +0.02471751         
 C30     +0.48328886         +0.30711142         +0.099870464        
 C31     +0.098250919        +0.26348385         -0.37031215         
 C32     -0.22017728         -0.038031257        -0.04435502         
 C33     -0.50126344         -0.22562833         -0.18954892         
 C34     +0.33183731         +0.026702414        +3.1873417          
 C35     +0.30274921         +0.040353167        +3.8400706          
 C36     +0.49860091         +0.23663537         +3.5367162          


 ><><><><><><><><><><><><><><><><><><><><><><><><><><><><><><><><><><><

 TOTAL-STRESS (KBAR)

 ><><><><><><><><><><><><><><><><><><><><><><><><><><><><><><><><><><><

 +253.745199            +82.815407             +2.749261              
 +82.815407             +219.220882            -38.426064             
 +2.749261              -38.426064             +262.378206            
 TOTAL-PRESSURE: +245.114762 KBAR


 ------------------------------------------------------------------------------------------------
 Energy              Potential           Kinetic             Temperature         Pressure (KBAR)     
 -347.08598          -347.09549          +0.0095106836       +28.199368          +245.51016          
 ------------------------------------------------------------------------------------------------

output Pressure for check!
Virtual Pressure is +245.51016 Kbar 
Virial Term is +245.11476 Kbar 
Kenetic Term is +0.39540048 Kbar 


 ><><><><><><><><><><><><><><><><><><><><><><><><><><><><><><><><><><><

 MD STRESS (KBAR)

 ><><><><><><><><><><><><><><><><><><><><><><><><><><><><><><><><><><><

+254.16261     +82.876796     +2.7594176     
+82.876796     +219.63923     -38.449107     
+2.7594176     -38.449107     +262.72865     



 -------------------------------------------
 STEP OF MOLECULAR DYNAMICS : 2
 -------------------------------------------
 first order charge density extrapolation !
 searching radius is (Bohr))              = +25.29
 searching radius unit is (Bohr))         = +1.8897261
+1715364
 DONE : INIT SCF Time : +3381.22 (SEC)


 LCAO ALGORITHM --------------- ION=+3    ELEC=+1  --------------------------------

 Density error is +0.00163141990457

 LCAO ALGORITHM --------------- ION=+3    ELEC=+2  --------------------------------

 Density error is +0.00090106255881

 LCAO ALGORITHM --------------- ION=+3    ELEC=+3  --------------------------------

 Density error is +0.000706147380078

 LCAO ALGORITHM --------------- ION=+3    ELEC=+4  --------------------------------

 Density error is +0.000189508192215

 LCAO ALGORITHM --------------- ION=+3    ELEC=+5  --------------------------------

 Density error is +0.000145826744539

 LCAO ALGORITHM --------------- ION=+3    ELEC=+6  --------------------------------

 Density error is +5.63400742147e-05

 LCAO ALGORITHM --------------- ION=+3    ELEC=+7  --------------------------------

 Density error is +2.14140101382e-05

 LCAO ALGORITHM --------------- ION=+3    ELEC=+8  --------------------------------

 Density error is +5.44710785259e-06

 LCAO ALGORITHM --------------- ION=+3    ELEC=+9  --------------------------------

 Density error is +2.193234145e-06

 LCAO ALGORITHM --------------- ION=+3    ELEC=+10 --------------------------------

 Density error is +1.09434693533e-06

 LCAO ALGORITHM --------------- ION=+3    ELEC=+11 --------------------------------

 Density error is +4.54114457817e-07

 charge density convergence is achieved
 final etot is -9445.18006026 eV

 ><><><><><><><><><><><><><><><><><><><><><><><><><><><><><><><><><><><

    TOTAL-FORCE (eV/Angstrom)

 ><><><><><><><><><><><><><><><><><><><><><><><><><><><><><><><><><><><

 atom    x              y              z              
 Si1     +3.9320164          +2.7491075          +2.2527257          
 Si2     -0.71389146         -2.2790586          +1.8777518          
 Si3     +3.7273877          +0.082704606        +3.0337178          
 Si4     -2.7756661          -1.9033007          +0.7714182          
 Si5     +0.60208497         +1.2591564          -0.27582901         
 Si6     -3.7187715          -0.88257709         +0.73236524         
 Si7     +3.3023093          +2.3232148          +1.0606144          
 Si8     -0.44168265         -2.5247041          +0.91672211         
 Si9     +3.2312716          -0.52142724         +1.7738808          
 Si10    -2.9387867          -2.105483           -2.9834371          
 Si11    +0.34742303         +1.4713429          -4.5476454          
 Si12    -3.3419366          -0.70289614         -3.2596624          
 Si13    +3.4678994          +1.8955816          +1.7776991          
 Si14    -0.026949064        -0.67377697         +0.59867082         
 Si15    -0.27577588         -2.3048033          +1.7659199          
 Si16    -3.2627044          -2.2034573          +0.75786486         
 Si17    +0.4041664          -0.055975988        -0.13461033         
 Si18    -0.013544234        +0.95201134         -0.17481992         
 Si19    +3.6526041          +2.2443453          +1.5682473          
 Si20    -0.073795583        -0.054594279        -0.060857975        
 Si21    -0.06210412         -2.0657443          +0.91679624         
 Si22    -3.0140483          -1.3843661          -3.2155683          
 Si23    -0.0037903772       +0.19887724         -3.8219861          
 Si24    -0.38868715         +1.0159275          -4.5340853          
 Si25    -0.13877094         -0.02784217         +1.1076508          
 Si26    -0.30759591         -0.29883868         +1.2809793          
 Si27    -0.3361257          -0.5151057          +0.96540358         
 Si28    -0.02003363         -0.39450478         +0.23008418         
 Si29    +0.47310891         -0.07341821         +0.42552919         
 Si30    +0.60583205         +0.08228136         +0.064521371        
 Si31    +0.10570487         +0.51757837         +0.026981635        
 Si32    -1.012795           -0.00040709857      +0.063883636        
 Si33    -0.63997587         -0.29199333         +0.18100925         
 Si34    -0.12904105         -0.29725431         -3.5931747          
 Si35    +0.3941487          +0.08559331         -4.0700324          
 Si36    +0.47959789         +0.69688386         -3.4061968          
 C1      +3.4399066          +2.3236625          -1.1019861          
 C2      -0.14471224         -1.4233353          +0.38924823         
 C3      +2.6572053          +0.52700808         -0.83649198         
 C4      -3.2100368          -1.7379785          -0.93261384         
 C5      +0.38129487         +2.3358675          -0.9857329          
 C6      -3.1996278          -0.14910475         -2.482261           
 C7      +3.3338237          +1.7323072          -1.6585197          
 C8      -0.20942547         -0.76386407         +0.11859565         
 C9      +3.1200926          +0.77182987         -0.96911518         
 C10     -3.3996274          -2.242593           +2.0224357          
 C11     +0.5068217          +1.8559461          +2.982032           
 C12     -4.3060754          -0.76497588         +0.71121869         
 C13     +3.337912           +1.8895459          -1.2681464          
 C14     -0.30718844         +0.240604           -0.12616154         
 C15     +0.12742143         -0.96356545         +0.098434729        
 C16     -3.5500384          -2.3353265          -1.3057147          
 C17     +0.21448206         -0.28732918         +0.2716069          
 C18     -0.053128909        +2.0846949          -0.98292765         
 C19     +3.091476           +1.8317825          -1.6801837          
 C20     -0.044305821        +0.04715964         -0.10759853         
 C21     +0.17877594         -1.004798           -0.19777209         
 C22     -3.5498328          -1.9701579          +2.5602499          
 C23     -0.065574987        +0.23961992         +3.1221947          
 C24     +0.18817091         +2.2068587          +2.608684           
 C25     -0.18411612         +0.19050628         -0.11031006         
 C26     -0.27578293         +0.30982725         +0.10188196         
 C27     -0.80927075         -0.15962023         -0.038217101        
 C28     -0.090957206        +0.12814982         -0.06667202         
 C29     +0.67308441         +0.39178363         +0.013247184        
 C30     +0.48432082         +0.22978719         +0.078708813        
 C31     +0.14367298         +0.38025631         -0.43936763         
 C32     -0.26100881         -0.11843127         -0.10821457         
 C33     -0.59133737         -0.16678899         -0.25879989         
 C34     +0.37608258         -0.019888276        +3.1732303          
 C35     +0.31081145         +0.094592417        +3.8402834          
 C36     +0.59760951         +0.28289087         +3.492223           


 ><><><><><><><><><><><><><><><><><><><><><><><><><><><><><><><><><><><

 TOTAL-STRESS (KBAR)

 ><><><><><><><><><><><><><><><><><><><><><><><><><><><><><><><><><><><

 +252.632252            +81.690835             +2.227129              
 +81.690835             +218.528934            -38.887083             
 +2.227129              -38.887083             +261.032408            
 TOTAL-PRESSURE: +244.064532 KBAR


 ------------------------------------------------------------------------------------------------
 Energy              Potential           Kinetic             Temperature         Pressure (KBAR)     
 -347.08075          -347.10384          +0.023094023        +68.474242          +245.02465          
 ------------------------------------------------------------------------------------------------

output Pressure for check!
Virtual Pressure is +245.02465 Kbar 
Virial Term is +244.06453 Kbar 
Kenetic Term is +0.96011897 Kbar 


 ><><><><><><><><><><><><><><><><><><><><><><><><><><><><><><><><><><><

 MD STRESS (KBAR)

 ><><><><><><><><><><><><><><><><><><><><><><><><><><><><><><><><><><><

+253.61454     +81.700474     +2.2244418     
+81.700474     +219.34193     -38.998206     
+2.2244418     -38.998206     +262.11749     



 -------------------------------------------
 STEP OF MOLECULAR DYNAMICS : 3
 -------------------------------------------
 second order charge density extrapolation !
 searching radius is (Bohr))              = +25.29
 searching radius unit is (Bohr))         = +1.8897261
+1714360
 DONE : INIT SCF Time : +4723.54 (SEC)


 LCAO ALGORITHM --------------- ION=+4    ELEC=+1  --------------------------------

 Density error is +0.00212462213679

 LCAO ALGORITHM --------------- ION=+4    ELEC=+2  --------------------------------

 Density error is +0.00141578256282

 LCAO ALGORITHM --------------- ION=+4    ELEC=+3  --------------------------------

 Density error is +0.0014072145839

 LCAO ALGORITHM --------------- ION=+4    ELEC=+4  --------------------------------

 Density error is +0.000337396030795

 LCAO ALGORITHM --------------- ION=+4    ELEC=+5  --------------------------------

 Density error is +0.000174489149453

 LCAO ALGORITHM --------------- ION=+4    ELEC=+6  --------------------------------

 Density error is +7.19918240794e-05

 LCAO ALGORITHM --------------- ION=+4    ELEC=+7  --------------------------------

 Density error is +3.33465520991e-05

 LCAO ALGORITHM --------------- ION=+4    ELEC=+8  --------------------------------

 Density error is +8.22150344086e-06

 LCAO ALGORITHM --------------- ION=+4    ELEC=+9  --------------------------------

 Density error is +4.51435937373e-06

 LCAO ALGORITHM --------------- ION=+4    ELEC=+10 --------------------------------

 Density error is +1.63692905235e-06

 LCAO ALGORITHM --------------- ION=+4    ELEC=+11 --------------------------------

 Density error is +4.70774899996e-07

 charge density convergence is achieved
 final etot is -9445.50239644 eV

 ><><><><><><><><><><><><><><><><><><><><><><><><><><><><><><><><><><><

    TOTAL-FORCE (eV/Angstrom)

 ><><><><><><><><><><><><><><><><><><><><><><><><><><><><><><><><><><><

 atom    x              y              z              
 Si1     +3.8509574          +2.8928393          +2.2125775          
 Si2     -0.79910048         -2.1336856          +1.7700041          
 Si3     +3.6216032          +0.1428381          +2.9403051          
 Si4     -2.6299301          -1.8709491          +0.69365039         
 Si5     +0.54524546         +1.1140299          -0.30819827         
 Si6     -3.6045909          -0.93012034         +0.67383442         
 Si7     +3.3202435          +2.2693947          +1.0416389          
 Si8     -0.37630269         -2.5183724          +0.81662518         
 Si9     +3.2348503          -0.46568682         +1.6571303          
 Si10    -2.8385175          -2.0713007          -2.9945743          
 Si11    +0.27910519         +1.5024696          -4.3798957          
 Si12    -3.2211399          -0.63503589         -3.1608108          
 Si13    +3.4567729          +1.8461925          +1.8645407          
 Si14    -0.12656235         -0.72491412         +0.52252557         
 Si15    -0.2236649          -2.1739438          +1.779462           
 Si16    -3.3889991          -2.0907793          +0.77424683         
 Si17    +0.41339006         -0.051861995        -0.23891601         
 Si18    -0.052399741        +0.96817581         -0.28524573         
 Si19    +3.3731196          +2.1082271          +1.5513563          
 Si20    -0.031052309        +0.10221422         +0.066295758        
 Si21    -0.0095675278       -1.9348213          +0.89917352         
 Si22    -3.0576275          -1.4822079          -3.0450607          
 Si23    -0.017767009        +0.31056232         -3.5150155          
 Si24    -0.3626841          +1.0228085          -4.2109005          
 Si25    -0.12510855         +0.086152944        +1.0760189          
 Si26    -0.37164506         -0.2082536          +1.2415208          
 Si27    -0.41613126         -0.54954762         +0.98432714         
 Si28    -0.16048052         -0.43270917         +0.27161815         
 Si29    +0.39785735         -0.16126254         +0.29820332         
 Si30    +0.49424379         +0.18436533         -0.0040632274       
 Si31    -0.0071610249       +0.59639442         +0.095898441        
 Si32    -0.91419265         -0.052077977        +0.075756153        
 Si33    -0.60822363         -0.20585341         +0.26171644         
 Si34    -0.2063652          -0.32297218         -3.2820438          
 Si35    +0.35025513         +0.045941447        -3.8158554          
 Si36    +0.45310258         +0.69717356         -3.161148           
 C1      +3.3155278          +2.2614896          -1.0216769          
 C2      -0.035532951        -1.2097384          +0.43740562         
 C3      +2.6080421          +0.46429632         -0.64391506         
 C4      -3.2844266          -1.7176241          -0.84245322         
 C5      +0.35054107         +2.2738269          -0.90804647         
 C6      -3.2640239          -0.20476491         -2.3813596          
 C7      +3.3251006          +1.6232721          -1.5742316          
 C8      -0.094081958        -0.71280763         +0.16563968         
 C9      +3.0459133          +0.73007247         -0.77687335         
 C10     -3.2558853          -2.0791851          +1.9725019          
 C11     +0.56055017         +1.629365           +2.7041065          
 C12     -4.2769855          -0.99830151         +0.59349976         
 C13     +3.463049           +2.0034984          -1.2463308          
 C14     -0.22082986         +0.13020365         +0.050170467        
 C15     +0.1650868          -0.91882919         +0.092074637        
 C16     -3.366459           -2.2024102          -1.2087623          
 C17     +0.11653874         -0.32620822         +0.179006           
 C18     +0.017532219        +1.8896987          -0.90112776         
 C19     +3.1323375          +1.9745616          -1.7596967          
 C20     +0.0012456696       -0.0018198292       -0.2829662          
 C21     +0.10649839         -1.0323645          -0.31240506         
 C22     -3.4991508          -1.9898367          +2.402326           
 C23     -0.071834366        +0.17376828         +2.8714496          
 C24     +0.28020138         +2.0629154          +2.3796801          
 C25     -0.053210243        +0.31157141         +0.016439095        
 C26     -0.35742378         +0.17728038         +0.075616254        
 C27     -0.72625603         -0.24058052         +0.049676051        
 C28     -0.0245876          +0.013443109        +0.0044276296       
 C29     +0.63343401         +0.47082022         +0.10881279         
 C30     +0.5680391          +0.17314577         -0.044246706        
 C31     +0.19744674         +0.34060419         -0.56018937         
 C32     -0.38089821         +0.0097692071       -0.10306952         
 C33     -0.59589587         -0.20758167         -0.39584635         
 C34     +0.45793776         -0.019814494        +2.9137641          
 C35     +0.19471952         +0.038039315        +3.4802472          
 C36     +0.72620776         +0.23680135         +3.2996556          


 ><><><><><><><><><><><><><><><><><><><><><><><><><><><><><><><><><><><

 TOTAL-STRESS (KBAR)

 ><><><><><><><><><><><><><><><><><><><><><><><><><><><><><><><><><><><

 +253.270396            +81.231449             +1.601931              
 +81.231449             +216.641206            -38.609165             
 +1.601931              -38.609165             +257.513933            
 TOTAL-PRESSURE: +242.475178 KBAR


 ------------------------------------------------------------------------------------------------
 Energy              Potential           Kinetic             Temperature         Pressure (KBAR)     
 -347.08885          -347.11569          +0.026841073        +79.584321          +243.59108          
 ------------------------------------------------------------------------------------------------

output Pressure for check!
Virtual Pressure is +243.59108 Kbar 
Virial Term is +242.47518 Kbar 
Kenetic Term is +1.1159001 Kbar 


 ><><><><><><><><><><><><><><><><><><><><><><><><><><><><><><><><><><><

 MD STRESS (KBAR)

 ><><><><><><><><><><><><><><><><><><><><><><><><><><><><><><><><><><><

+254.18116     +80.953129     +1.5154759     
+80.953129     +217.89        -38.524156     
+1.5154759     -38.524156     +258.70208     



 -------------------------------------------
 STEP OF MOLECULAR DYNAMICS : 4
 -------------------------------------------
 second order charge density extrapolation !
 searching radius is (Bohr))              = +25.29
 searching radius unit is (Bohr))         = +1.8897261
+1712778
 DONE : INIT SCF Time : +6066.75 (SEC)


 LCAO ALGORITHM --------------- ION=+5    ELEC=+1  --------------------------------

 Density error is +0.00255768775961

 LCAO ALGORITHM --------------- ION=+5    ELEC=+2  --------------------------------

 Density error is +0.00152229890164

 LCAO ALGORITHM --------------- ION=+5    ELEC=+3  --------------------------------

 Density error is +0.00142084568433

 LCAO ALGORITHM --------------- ION=+5    ELEC=+4  --------------------------------

 Density error is +0.000377932896636

 LCAO ALGORITHM --------------- ION=+5    ELEC=+5  --------------------------------

 Density error is +0.000233222571168

 LCAO ALGORITHM --------------- ION=+5    ELEC=+6  --------------------------------

 Density error is +8.60468198614e-05

 LCAO ALGORITHM --------------- ION=+5    ELEC=+7  --------------------------------

 Density error is +3.82653400136e-05

 LCAO ALGORITHM --------------- ION=+5    ELEC=+8  --------------------------------

 Density error is +7.11135224874e-06

 LCAO ALGORITHM --------------- ION=+5    ELEC=+9  --------------------------------

 Density error is +4.55103327614e-06

 LCAO ALGORITHM --------------- ION=+5    ELEC=+10 --------------------------------

 Density error is +1.89496647739e-06

 LCAO ALGORITHM --------------- ION=+5    ELEC=+11 --------------------------------

 Density error is +5.45405643298e-07

 charge density convergence is achieved
 final etot is -9445.62718421 eV

 ><><><><><><><><><><><><><><><><><><><><><><><><><><><><><><><><><><><

    TOTAL-FORCE (eV/Angstrom)

 ><><><><><><><><><><><><><><><><><><><><><><><><><><><><><><><><><><><

 atom    x              y              z              
 Si1     +3.7327125          +2.789388           +2.135157           
 Si2     -0.60105613         -2.2039536          +1.8566919          
 Si3     +3.6393218          +0.26491302         +2.9528705          
 Si4     -2.5322797          -1.8298959          +0.70218419         
 Si5     +0.5332752          +1.0527932          -0.30944862         
 Si6     -3.3685689          -1.0024356          +0.45761298         
 Si7     +3.2616653          +2.2560655          +1.0787412          
 Si8     -0.25696554         -2.6797519          +0.88790651         
 Si9     +3.0431978          -0.51031926         +1.5873065          
 Si10    -2.8110163          -2.0782579          -2.9382211          
 Si11    +0.30008896         +1.5639766          -4.2784723          
 Si12    -3.2925223          -0.6902232          -2.9894835          
 Si13    +3.223993           +1.8089816          +1.9031247          
 Si14    -0.089881811        -0.74616189         +0.71557929         
 Si15    -0.21461644         -2.1475849          +1.9360776          
 Si16    -3.4025315          -1.9873789          +0.65425192         
 Si17    +0.37015629         -0.044919981        -0.27832138         
 Si18    +0.075140363        +0.89305438         -0.37178754         
 Si19    +3.4383339          +1.9925039          +1.529844           
 Si20    -0.083438177        +0.040251869        +0.016391764        
 Si21    +0.052131916        -1.9289876          +0.81770051         
 Si22    -3.0537532          -1.4332529          -2.8444341          
 Si23    -0.15422551         +0.44349803         -3.4734498          
 Si24    -0.43557852         +1.0926256          -4.1549819          
 Si25    -0.029733498        +0.07869243         +0.95118361         
 Si26    -0.28865903         -0.2283951          +1.2346447          
 Si27    -0.37670064         -0.43984932         +0.87089715         
 Si28    -0.17941471         -0.27979556         +0.25474465         
 Si29    +0.44212511         -0.012416776        +0.34931926         
 Si30    +0.50058818         +0.28164311         +0.12178918         
 Si31    -0.0014870201       +0.49491518         -0.025901165        
 Si32    -1.0219047          -0.078515726        +0.14671496         
 Si33    -0.66660409         -0.083691188        +0.27752484         
 Si34    -0.25305828         -0.35209953         -3.1299968          
 Si35    +0.37626588         +0.062708523        -3.7155843          
 Si36    +0.61248531         +0.64610512         -3.1660242          
 C1      +3.2342306          +2.0544749          -0.87186314         
 C2      -0.16862917         -1.070657           +0.4641596          
 C3      +2.5419924          +0.51127197         -0.70730945         
[...]
 C15     +0.18726404         -1.3044719          -0.23981649         
 C16     -2.6993266          -2.1826602          -1.1768128          
 C17     +0.37788832         +0.095166065        +0.41401429         
 C18     -0.069991597        +1.7104889          -0.046960028        
 C19     +2.9809072          +1.7040132          -1.5611394          
 C20     +0.16302865         -0.21193963         +0.20017841         
 C21     +0.17670436         -0.4754562          -0.35686836         
 C22     -3.2933178          -1.7098869          +1.8096167          
 C23     -0.34884908         +0.19519038         +2.8239784          
 C24     -0.48181238         +1.6600816          +0.99020165         
 C25     -0.34427677         +0.1804206          +0.049778983        
 C26     -0.74883211         +0.47303201         +0.36691737         
 C27     -1.2073277          -0.4901132          +0.30872747         
 C28     -0.13064024         +0.15533964         -0.54176572         
 C29     +0.60867136         +0.19484155         -0.064589143        
 C30     +0.203591           +0.021732714        +0.10259853         
 C31     +0.2284352          +0.020233209        -0.063273055        
 C32     +0.013122613        +0.14183109         -0.16228541         
 C33     -0.72058416         -0.046115185        -0.31056456         
 C34     +0.28126226         +0.058231118        +2.3923791          
 C35     +0.25931208         +0.7745395          +1.932527           
 C36     +0.37996882         +0.32791488         +3.1040592          


 ><><><><><><><><><><><><><><><><><><><><><><><><><><><><><><><><><><><

 TOTAL-STRESS (KBAR)

 ><><><><><><><><><><><><><><><><><><><><><><><><><><><><><><><><><><><

 +244.311829            +77.083910             +3.070058              
 +77.083910             +215.093956            -40.726638             
 +3.070058              -40.726638             +250.987286            
 TOTAL-PRESSURE: +236.797690 KBAR


 ------------------------------------------------------------------------------------------------
 Energy              Potential           Kinetic             Temperature         Pressure (KBAR)     
 -347.07295          -347.15676          +0.083804096        +248.48083          +240.28179          
 ------------------------------------------------------------------------------------------------

output Pressure for check!
Virtual Pressure is +240.28179 Kbar 
Virial Term is +236.79769 Kbar 
Kenetic Term is +3.4841007 Kbar 


 ><><><><><><><><><><><><><><><><><><><><><><><><><><><><><><><><><><><

 MD STRESS (KBAR)

 ><><><><><><><><><><><><><><><><><><><><><><><><><><><><><><><><><><><

+247.24229     +76.859585     +3.7975597     
+76.859585     +218.52957     -40.933579     
+3.7975597     -40.933579     +255.07351     



 -------------------------------------------
 STEP OF MOLECULAR DYNAMICS : 10
 -------------------------------------------
 second order charge density extrapolation !
 searching radius is (Bohr))              = +25.29
 searching radius unit is (Bohr))         = +1.8897261
+1715278
 DONE : INIT SCF Time : +14471.1 (SEC)


 LCAO ALGORITHM --------------- ION=+11   ELEC=+1  --------------------------------

 Density error is +0.00395019009733

 LCAO ALGORITHM --------------- ION=+11   ELEC=+2  --------------------------------

 Density error is +0.00244517958814

 LCAO ALGORITHM --------------- ION=+11   ELEC=+3  --------------------------------

 Density error is +0.00220285121953

 LCAO ALGORITHM --------------- ION=+11   ELEC=+4  --------------------------------

 Density error is +0.000589002330077

 LCAO ALGORITHM --------------- ION=+11   ELEC=+5  --------------------------------

 Density error is +0.000393251496382

 LCAO ALGORITHM --------------- ION=+11   ELEC=+6  --------------------------------

 Density error is +0.000137317343919

 LCAO ALGORITHM --------------- ION=+11   ELEC=+7  --------------------------------

 Density error is +5.92064785301e-05

 LCAO ALGORITHM --------------- ION=+11   ELEC=+8  --------------------------------

 Density error is +1.21346989223e-05

 LCAO ALGORITHM --------------- ION=+11   ELEC=+9  --------------------------------

 Density error is +7.91854256353e-06

 LCAO ALGORITHM --------------- ION=+11   ELEC=+10 --------------------------------

 Density error is +3.2725368724e-06

 LCAO ALGORITHM --------------- ION=+11   ELEC=+11 --------------------------------

 Density error is +8.92283013915e-07

 charge density convergence is achieved
 final etot is -9446.88384806 eV

 ><><><><><><><><><><><><><><><><><><><><><><><><><><><><><><><><><><><

    TOTAL-FORCE (eV/Angstrom)

 ><><><><><><><><><><><><><><><><><><><><><><><><><><><><><><><><><><><

 atom    x              y              z              
 Si1     +2.736869           +1.9944204          +1.8241256          
 Si2     -1.0476858          -1.8487601          +1.6236874          
 Si3     +3.3884025          +0.30811305         +2.942362           
 Si4     -1.7644889          -1.2261987          +0.24578675         
 Si5     +0.83666833         +1.3687178          -0.56351715         
 Si6     -2.6876602          -1.3814661          -0.38840086         
 Si7     +2.6478251          +2.0522302          +0.36603242         
 Si8     +0.12489698         -2.4461601          +0.63699558         
 Si9     +2.6083211          -0.3830153          +0.87283413         
 Si10    -1.7403846          -1.6681525          -3.1570934          
 Si11    +0.76690887         +1.8163838          -3.2044163          
 Si12    -3.6331015          -0.96528802         -2.0198758          
 Si13    +3.2164375          +1.1256273          +1.3513577          
 Si14    +0.030246499        -0.83469247         +0.21952973         
 Si15    +0.14897847         -2.1123136          +2.2924653          
 Si16    -2.8796495          -1.7269374          +0.26802308         
 Si17    +0.24931478         +0.4353728          -0.15063929         
 Si18    +0.23976334         +0.97152043         -0.79252084         
 Si19    +3.4339237          +1.8128636          +0.93438754         
 Si20    -0.15360635         -0.37589189         -0.21921017         
 Si21    +0.0035201363       -2.09848            +0.69050557         
 Si22    -2.6095783          -1.2633674          -2.5035221          
 Si23    -0.36351204         +0.46273604         -3.7318009          
 Si24    -0.74109257         +0.7253622          -3.2664376          
 Si25    +0.14446501         -0.21193113         +0.92925607         
 Si26    -0.034760297        -0.2746664          +1.2623249          
 Si27    -0.10568544         -1.0597468          +1.0771987          
 Si28    -0.53052039         -0.32227825         +0.43392781         
 Si29    +0.35978799         +0.013643207        +0.37132228         
 Si30    +0.37942869         +0.44793094         +0.083911137        
 Si31    +0.38525911         +0.65639445         -0.2730651          
 Si32    -1.1127952          -0.05571297         -0.28724281         
 Si33    -1.0035785          -0.57582698         -0.034422491        
 Si34    -0.20600318         -0.096704424        -2.4578136          
 Si35    +0.67616475         -0.18904339         -2.2994973          
 Si36    +0.3343776          +0.85837845         -2.796299           
 C1      +2.8705011          +1.5497548          -0.80569671         
 C2      +0.26297987         -0.34646966         +1.1443113          
 C3      +1.8643149          -0.09844908         -0.48300844         
 C4      -2.994194           -0.8403739          -0.13211718         
 C5      +0.078357978        +1.3750688          -0.36652042         
 C6      -2.4510031          +0.22912764         -1.2242552          
 C7      +3.4927241          +1.9926812          -1.7818405          
 C8      -0.15599774         -0.5756102          +0.28622961         
 C9      +1.6178755          +0.15466968         -0.55468861         
 C10     -2.8074861          -1.159501           +1.5884             
 C11     +0.40606666         +1.0617692          +1.694354           
 C12     -2.7971405          -0.65570876         +0.20801345         
 C13     +3.0916183          +1.7332321          -0.35840224         
 C14     +0.1794076          -0.43486942         +0.75759575         
 C15     +0.1799003          -1.0097595          -0.03548435         
 C16     -2.7549884          -2.2818278          -0.96820691         
 C17     +0.47625246         +0.33307216         +0.26582187         
 C18     -0.062964481        +1.7123453          -0.070104235        
 C19     +2.982753           +1.6965508          -1.3935866          
 C20     +0.11878015         -0.43416297         +0.13246615         
 C21     +0.090701758        -0.39539594         -0.37530876         
 C22     -3.079624           -1.6850354          +1.9243536          
 C23     -0.38515154         +0.28504317         +2.9961423          
 C24     -0.42584635         +1.8662948          +1.1755121          
 C25     -0.44117607         -0.068142529        +0.054562515        
 C26     -1.0113173          +0.43329722         +0.50886418         
 C27     -1.0344602          -0.69276826         +0.30538909         
 C28     -0.38752261         +0.32051811         -0.73294954         
 C29     +0.76486529         +0.32263873         +0.0053696985       
 C30     +0.094404618        +0.29753776         +0.21016748         
 C31     +0.3071908          -0.074888302        -0.22177645         
 C32     -0.28525497         +0.41009224         -0.13886926         
 C33     -0.57557061         -0.10750091         -0.31561379         
 C34     +0.23989638         +0.30150725         +1.8917241          
 C35     +0.014167906        +0.62000412         +1.6390393          
 C36     +0.41948239         +0.23219811         +2.8898537          


 ><><><><><><><><><><><><><><><><><><><><><><><><><><><><><><><><><><><

 TOTAL-STRESS (KBAR)

 ><><><><><><><><><><><><><><><><><><><><><><><><><><><><><><><><><><><

 +239.697801            +73.951267             +3.777673              
 +73.951267             +216.013724            -41.661428             
 +3.777673              -41.661428             +250.573039            
 TOTAL-PRESSURE: +235.428188 KBAR


 ------------------------------------------------------------------------------------------------
 Energy              Potential           Kinetic             Temperature         Pressure (KBAR)     
 -347.0578           -347.16645          +0.10865462         +322.16313          +239.94543          
 ------------------------------------------------------------------------------------------------

output Pressure for check!
Virtual Pressure is +239.94543 Kbar 
Virial Term is +235.42819 Kbar 
Kenetic Term is +4.5172451 Kbar 


 ><><><><><><><><><><><><><><><><><><><><><><><><><><><><><><><><><><><

 MD STRESS (KBAR)

 ><><><><><><><><><><><><><><><><><><><><><><><><><><><><><><><><><><><

+244.14527     +74.336376     +3.7618641     
+74.336376     +220.65092     -41.993818     
+3.7618641     -41.993818     +255.04011     




 --------------------------------------------
 !FINAL_ETOT_IS -9446.883848058706 eV
 --------------------------------------------






  |CLASS_NAME---------|NAME---------------|TIME(Sec)-----|CALLS----|AVG------|PER%-------
                       total               +15812         27        +5.9e+02  +1e+02    %
   Driver              driver_line         +15812         1         +1.6e+04  +1e+02    %
   PW_Basis            setup_struc_factor  +1.1141        11        +0.1      +0.007    %
   ORB_control         read_orb_first      +0.21718       1         +0.22     +0.0014   %
   LCAO_Orbitals       Read_Orbitals       +0.21718       1         +0.22     +0.0014   %
   NOrbital_Lm         extra_uniform       +0.11645       16        +0.0073   +0.00074  %
   Mathzone_Add1       Uni_Deriv_Phi       +0.1021        16        +0.0064   +0.00065  %
   ORB_control         set_orb_tables      +6.9959        1         +7        +0.044    %
   ORB_gen_tables      gen_tables          +6.9959        1         +7        +0.044    %
   ORB_table_phi       init_Table          +5.1722        1         +5.2      +0.033    %
   ORB_table_phi       cal_ST_Phi12_R      +5.1282        558       +0.0092   +0.032    %
   ORB_table_beta      init_Table_Beta     +1.3336        1         +1.3      +0.0084   %
   ORB_table_beta      VNL_PhiBeta_R       +1.3264        168       +0.0079   +0.0084   %
   ppcell_vl           init_vloc           +0.24456       1         +0.24     +0.0015   %
   Run_MD              md_line             +15804         1         +1.6e+04  +1e+02    %
   Langevin            setup               +2138.8        1         +2.1e+03  +14       %
   MD_func             force_stress        +15804         11        +1.4e+03  +1e+02    %
   ESolver_KS_LCAO     Run                 +14608         11        +1.3e+03  +92       %
   ESolver_KS_LCAO     beforescf           +27.923        11        +2.5      +0.18     %
   ESolver_KS_LCAO     beforesolver        +10.752        11        +0.98     +0.068    %
   ESolver_KS_LCAO     set_matrix_grid     +6.4038        11        +0.58     +0.04     %
   atom_arrange        search              +0.10413       11        +0.0095   +0.00066  %
   Grid_Technique      init                +2.9692        11        +0.27     +0.019    %
   Grid_BigCell        grid_expansion_index+0.94554       22        +0.043    +0.006    %
   Record_adj          for_2d              +3.0148        11        +0.27     +0.019    %
   Grid_Driver         Find_atom           +18.156        704520    +2.6e-05  +0.11     %
   Charge              atomic_rho          +14.916        21        +0.71     +0.094    %
   PW_Basis            recip2real          +1.9575        770       +0.0025   +0.012    %
   PW_Basis            gathers_scatterp    +1.1421        770       +0.0015   +0.0072   %
   Potential           init_pot            +0.85204       11        +0.077    +0.0054   %
   Potential           update_from_charge  +10.52         141       +0.075    +0.067    %
   Potential           cal_v_eff           +10.477        141       +0.074    +0.066    %
   H_Hartree_pw        v_hartree           +0.95993       141       +0.0068   +0.0061   %
   PW_Basis            real2recip          +3.6524        1172      +0.0031   +0.023    %
   PW_Basis            gatherp_scatters    +2.2315        1172      +0.0019   +0.014    %
   PotXC               cal_v_eff           +9.438         141       +0.067    +0.06     %
   XC_Functional       v_xc                +9.3898        141       +0.067    +0.059    %
   HSolverLCAO         solve               +14556         130       +1.1e+02  +92       %
   HamiltLCAO          updateHk            +5394.9        4680      +1.2      +34       %
   OperatorLCAO        init                +4531.3        9360      +0.48     +29       %
   Veff                contributeHk        +4528.8        4680      +0.97     +29       %
   Gint_interface      cal_gint            +6230.3        271       +23       +39       %
   Gint_interface      cal_gint_vlocal     +3000.2        130       +23       +19       %
   Gint_k              folding_vl_k        +1528.6        4680      +0.33     +9.7      %
   Gint_k              Distri              +1260.1        4680      +0.27     +8        %
   Overlap             contributeHR        +5.5156        11        +0.5      +0.035    %
   LCAO_gen_fixedH     calculate_S_no      +5.5156        11        +0.5      +0.035    %
   Ekinetic<OperatorLCAO>contributeHR        +5.6154        11        +0.51     +0.036    %
   Nonlocal<OperatorLCAO>contributeHR        +54.07         11        +4.9      +0.34     %
   LCAO_gen_fixedH     build_Nonlocal_mu_new+173.16        22        +7.9      +1.1      %
   ORB_gen_tables      snap_psibeta_half   +3.6346        1315062   +2.8e-06  +0.023    %
   OperatorLCAO        folding_fixed       +798.33        4680      +0.17     +5        %
   LCAO_nnr            folding_fixedH      +790.22        4680      +0.17     +5        %
   HSolverLCAO         hamiltSolvePsiK     +1964.8        4680      +0.42     +12       %
   DiagoElpa           elpa_solve          +1946.3        4680      +0.42     +12       %
   ElecStateLCAO       psiToRho            +7196.6        130       +55       +46       %
   elecstate           cal_dm              +182.03        141       +1.3      +1.2      %
   psiMulPsiMpi        pdgemm              +177.13        5076      +0.035    +1.1      %
    Local_Orbital_wfc  wfc_2d_to_grid      +30.612        4680      +0.0065   +0.19     %
   LCAO_Charge         cal_dk_k            +3508.2        130       +27       +22       %
   Record_adj          for_grid            +0.77852       130       +0.006    +0.0049   %
   Gint_interface      cal_gint_rho        +2614.2        130       +20       +17       %
   Charge              mix_rho             +1.5078        119       +0.013    +0.0095   %
   Force_Stress_LCAO   getForceStress      +1196.7        11        +1.1e+02  +7.6      %
   Forces              cal_force_loc       +0.84174       11        +0.077    +0.0053   %
   Forces              cal_force_ew        +0.83692       11        +0.076    +0.0053   %
   Forces              cal_force_scc       +7.2675        11        +0.66     +0.046    %
   Stress_Func         stress_loc          +6.1889        11        +0.56     +0.039    %
   Stress_Func         stress_ewa          +0.38          11        +0.035    +0.0024   %
   Stress_Func         stress_gga          +0.4187        11        +0.038    +0.0026   %
   Force_LCAO_k        ftable_k            +1180.7        11        +1.1e+02  +7.5      %
   Force_LCAO_k        allocate_k          +154.55        11        +14       +0.98     %
   Force_LCAO_k        cal_foverlap_k      +33.421        11        +3        +0.21     %
   Force_LCAO_k        cal_edm_2d          +32.389        11        +2.9      +0.2      %
   Local_Orbital_Chargecal_dm_R            +12.734        22        +0.58     +0.081    %
   Force_LCAO_k        cal_ftvnl_dphi_k    +0.32735       11        +0.03     +0.0021   %
   Force_LCAO_k        cal_fvl_dphi_k      +615.89        11        +56       +3.9      %
   Gint_interface      cal_gint_force      +615.89        11        +56       +3.9      %
   Force_LCAO_k        cal_fvnl_dbeta_k_new+319.41        11        +29       +2        %
 ----------------------------------------------------------------------------------------

 CLASS_NAME---------|NAME---------------|MEMORY(MB)--------
                                         +2.972e+04
 ORB_table_phi       Jl(x)               +138.2         
 allocate_pvpR       pvpR_reduced        +100.2         
 LocalOrbital_Charge Density_Matrix      +100.2         
 stress_lo           dSR                 +78.52         
 force_lo            dS                  +39.26         
 force_lo            dTVNL               +39.26         
 Force_LCAO_k        dm2d                +13.09         
 ORB_table_phi       Table_SR&TR         +10.58         
 Grid_Meshcell       index2normal        +8.273         
 Grid_Meshcell       index2ucell         +8.273         
 Charge_Mixing       Rrho                +7.031         
 Charge_Mixing       dRrho               +6.152         
 Charge_Mixing       drho                +6.152         
 LocalOrbital_Coef   wfc_k_grid          +4.181         
 init_meshball       meshball_pos        +3.689         
 atoms_on_grid       which_atom          +2.956         
 atoms_on_grid       which_bigcell       +2.956         
 atoms_on_grid       which_unitcell      +2.956         
 ORB_table_beta      Table_NR            +2.045         
 PW_Basis            struc_fac           +1.216         
 ----------------------------------------------------------

 Start  Time  : Mon May 22 14:16:29 2023
 Finish Time  : Mon May 22 18:40:02 2023
 Total  Time  : 4 h 23 mins 33 secs 
