                                                                                     
                             WELCOME TO ABACUS v3.0                                  
                                                                                     
               'Atomic-orbital Based Ab-initio Computation at UStc'                  
                                                                                     
                     Website: http://abacus.ustc.edu.cn/                             
                                                                                     
    Version: Parallel, in development
    Processor Number is 16
    Start Time is Mon May 22 14:16:31 2023
                                                                                     
 ------------------------------------------------------------------------------------

 READING GENERAL INFORMATION
                           global_out_dir = OUT.ABACUS/
                           global_in_card = INPUT
                               pseudo_dir = 
                              orbital_dir = 
                                    DRANK = 1
                                    DSIZE = 16
                                   DCOLOR = 1
                                    GRANK = 1
                                    GSIZE = 1
 The esolver type has been set to : ksdft_lcao




 >>>>>>>>>>>>>>>>>>>>>>>>>>>>>>>>>>>>>>>>>>>>>>>>>>>>>>>>>>>>>>>>>>>>>>
 |                                                                    |
 | Reading atom information in unitcell:                              |
 | From the input file and the structure file we know the number of   |
 | different elments in this unitcell, then we list the detail        |
 | information for each element, especially the zeta and polar atomic |
 | orbital number for each element. The total atom number is counted. |
 | We calculate the nearest atom distance for each atom and show the  |
 | Cartesian and Direct coordinates for each atom. We list the file   |
 | address for atomic orbitals. The volume and the lattice vectors    |
 | in real and reciprocal space is also shown.                        |
 |                                                                    |
 <<<<<<<<<<<<<<<<<<<<<<<<<<<<<<<<<<<<<<<<<<<<<<<<<<<<<<<<<<<<<<<<<<<<<<




 READING UNITCELL INFORMATION
                                    ntype = 2
                 atom label for species 1 = Si
                 atom label for species 2 = C
                  lattice constant (Bohr) = 1.88973
              lattice constant (Angstrom) = 1

 READING ATOM TYPE 1
                               atom label = Si
                      L=0, number of zeta = 3
                      L=1, number of zeta = 3
                      L=2, number of zeta = 2
             number of atom for this type = 36
                      start magnetization = FALSE
                      start magnetization = FALSE
                      start magnetization = FALSE
                      start magnetization = FALSE
                      start magnetization = FALSE
                      start magnetization = FALSE
                      start magnetization = FALSE
                      start magnetization = FALSE
                      start magnetization = FALSE
                      start magnetization = FALSE
                      start magnetization = FALSE
                      start magnetization = FALSE
                      start magnetization = FALSE
                      start magnetization = FALSE
                      start magnetization = FALSE
                      start magnetization = FALSE
                      start magnetization = FALSE
                      start magnetization = FALSE
                      start magnetization = FALSE
                      start magnetization = FALSE
                      start magnetization = FALSE
                      start magnetization = FALSE
                      start magnetization = FALSE
                      start magnetization = FALSE
                      start magnetization = FALSE
                      start magnetization = FALSE
                      start magnetization = FALSE
                      start magnetization = FALSE
                      start magnetization = FALSE
                      start magnetization = FALSE
                      start magnetization = FALSE
                      start magnetization = FALSE
                      start magnetization = FALSE
                      start magnetization = FALSE
                      start magnetization = FALSE
                      start magnetization = FALSE

 READING ATOM TYPE 2
                               atom label = C
                      L=0, number of zeta = 3
                      L=1, number of zeta = 3
                      L=2, number of zeta = 2
             number of atom for this type = 36
                      start magnetization = FALSE
                      start magnetization = FALSE
                      start magnetization = FALSE
                      start magnetization = FALSE
                      start magnetization = FALSE
                      start magnetization = FALSE
                      start magnetization = FALSE
                      start magnetization = FALSE
                      start magnetization = FALSE
                      start magnetization = FALSE
                      start magnetization = FALSE
                      start magnetization = FALSE
                      start magnetization = FALSE
                      start magnetization = FALSE
                      start magnetization = FALSE
                      start magnetization = FALSE
                      start magnetization = FALSE
                      start magnetization = FALSE
                      start magnetization = FALSE
                      start magnetization = FALSE
                      start magnetization = FALSE
                      start magnetization = FALSE
                      start magnetization = FALSE
                      start magnetization = FALSE
                      start magnetization = FALSE
                      start magnetization = FALSE
                      start magnetization = FALSE
                      start magnetization = FALSE
                      start magnetization = FALSE
                      start magnetization = FALSE
                      start magnetization = FALSE
                      start magnetization = FALSE
                      start magnetization = FALSE
                      start magnetization = FALSE
                      start magnetization = FALSE
                      start magnetization = FALSE

                        TOTAL ATOM NUMBER = 72

 CARTESIAN COORDINATES ( UNIT = 1.88973 Bohr ).
         atom                   x                   y                   z                 mag                  vx                  vy                  vz
     tauc_Si1    -0.0422519211229       1.82907117864       2.54738298425                   0                   0                   0                   0
     tauc_Si2        3.0523519142       7.26797199152       2.54825362317                   0                   0                   0                   0
     tauc_Si3      -3.21095662384       7.22726301134       2.48135380437                   0                   0                   0                   0
     tauc_Si4       4.60070338859       6.39423373344       5.13387876777                   0                   0                   0                   0
     tauc_Si5       1.50415046855      0.949017836851       5.14093790701                   0                   0                   0                   0
     tauc_Si6       7.77276558984       1.00474956298        5.2151737391                   0                   0                   0                   0
     tauc_Si7    -0.0939056935744       1.86702840061       7.70017299214                   0                   0                   0                   0
     tauc_Si8       3.00452910376        7.3091418117       7.68903808284                   0                   0                   0                   0
     tauc_Si9      -3.25189511527       7.26446135131       7.61987848017                   0                   0                   0                   0
    tauc_Si10       4.54937933877       6.43623834147       10.2839611702                   0                   0                   0                   0
    tauc_Si11       1.45033233015        0.9835191046       10.2848984376                   0                   0                   0                   0
    tauc_Si12       7.71780563956       1.02908239646       10.3495927677                   0                   0                   0                   0
    tauc_Si13      -1.61885626772       4.53279856513       2.52165779944                   0                   0                   0                   0
    tauc_Si14       1.51794184759       4.55619092384       2.55207550447                   0                   0                   0                   0
    tauc_Si15    -0.0827313107327       7.24399167624       2.50962497224                   0                   0                   0                   0
    tauc_Si16       6.17942533362       3.69504431247       5.16913081378                   0                   0                   0                   0
    tauc_Si17       3.04642453171        3.6697105991       5.14536804969                   0                   0                   0                   0
    tauc_Si18       4.63576754126      0.969655126545       5.17959027467                   0                   0                   0                   0
    tauc_Si19      -1.67922047789       4.55715969557        7.6499633882                   0                   0                   0                   0
    tauc_Si20       1.44995784819       4.58931078225       7.68613976557                   0                   0                   0                   0
    tauc_Si21     -0.129253884914       7.28430938438       7.65248591641                   0                   0                   0                   0
    tauc_Si22       6.13225061301       3.73308020387       10.3086786564                   0                   0                   0                   0
    tauc_Si23       3.00048753019       3.71362036145       10.2903423779                   0                   0                   0                   0
    tauc_Si24       4.58162201963       1.01246304665       10.3128314377                   0                   0                   0                   0
    tauc_Si25        3.0871696605        1.8445702924       2.58916790238                   0                   0                   0                   0
    tauc_Si26       6.22812874537       1.86766930546       2.62448342963                   0                   0                   0                   0
    tauc_Si27       4.64032871728       4.57502905224       2.58660115233                   0                   0                   0                   0
    tauc_Si28       1.47000979043       6.37180284647       5.10494584811                   0                   0                   0                   0
    tauc_Si29      -1.66155020034       6.35053719014       5.08015919194                   0                   0                   0                   0
    tauc_Si30    -0.0824178459069       3.65690314672       5.09824119955                   0                   0                   0                   0
    tauc_Si31       3.03438746917       1.88494929084       7.71921465842                   0                   0                   0                   0
    tauc_Si32       6.16904856192       1.91419841314       7.76412692662                   0                   0                   0                   0
    tauc_Si33       4.58713180416       4.60338498299       7.72551668594                   0                   0                   0                   0
    tauc_Si34       1.40933231319       6.40121641063       10.2495463022                   0                   0                   0                   0
    tauc_Si35      -1.72096940431       6.38320996522       10.2072970926                   0                   0                   0                   0
    tauc_Si36     -0.135092984847       3.68320099662       10.2427006281                   0                   0                   0                   0
      tauc_C1     -0.063864032359       1.83880041764       4.48245336322                   0                   0                   0                   0
      tauc_C2       3.04022024661       7.28306579699        4.4799754691                   0                   0                   0                   0
      tauc_C3      -3.21957412275        7.2397575656       4.41794409671                   0                   0                   0                   0
      tauc_C4       4.58182134707        6.4019690981       7.06389068384                   0                   0                   0                   0
      tauc_C5       1.48627145486       0.97181477919       7.07286302116                   0                   0                   0                   0
      tauc_C6       7.75234689681       0.99988239444       7.14445880355                   0                   0                   0                   0
      tauc_C7     -0.103667649164       1.87788647762       9.61752818635                   0                   0                   0                   0
      tauc_C8        2.9823272122       7.32102842619        9.6137778645                   0                   0                   0                   0
      tauc_C9      -3.28354539968       7.27206924237       9.55262168524                   0                   0                   0                   0
     tauc_C10       4.63060898226        6.3736228472       1.93266038492                   0                   0                   0                   0
     tauc_C11       1.54261627228      0.924505977058       1.94294767041                   0                   0                   0                   0
     tauc_C12       7.80176615756      0.980743332024       2.00126287199                   0                   0                   0                   0
     tauc_C13      -1.65079342772       4.54099396336       4.44491823891                   0                   0                   0                   0
     tauc_C14        1.4841820132       4.55058073695       4.47876536048                   0                   0                   0                   0
     tauc_C15    -0.0950087799794       7.25512643705       4.45114610502                   0                   0                   0                   0
     tauc_C16       6.16618608432       3.70000887858       7.10283691365                   0                   0                   0                   0
     tauc_C17       3.02880618171       3.68177873798       7.07143343007                   0                   0                   0                   0
     tauc_C18       4.61344941461      0.984916835017       7.10684959584                   0                   0                   0                   0
     tauc_C19       -1.6934557242        4.5792052666       9.57860102138                   0                   0                   0                   0
     tauc_C20       1.43251896617       4.60095959645       9.61383649749                   0                   0                   0                   0
     tauc_C21      -0.14838877078       7.29869862863       9.58348062574                   0                   0                   0                   0
     tauc_C22       6.21734401165        3.6729592466       1.96704648072                   0                   0                   0                   0
     tauc_C23       3.08157982727       3.64975084397       1.93140358081                   0                   0                   0                   0
     tauc_C24       4.66474328145      0.950218228784       1.97438309531                   0                   0                   0                   0
     tauc_C25       3.08018693286       1.86059330997       4.52746659416                   0                   0                   0                   0
     tauc_C26        6.2015638987       1.87617571532       4.54627125877                   0                   0                   0                   0
     tauc_C27       4.62301558144       4.58481988475       4.51696026306                   0                   0                   0                   0
     tauc_C28       1.45263596293       6.38566656305       7.03244387721                   0                   0                   0                   0
     tauc_C29      -1.69414007853       6.36716830787       6.99846028764                   0                   0                   0                   0
     tauc_C30     -0.100360333652       3.66197579363       7.03811062504                   0                   0                   0                   0
     tauc_C31       3.01672597688       1.89068813772       9.65754375655                   0                   0                   0                   0
     tauc_C32       6.14790537369       1.91025211852       9.68628724956                   0                   0                   0                   0
     tauc_C33        4.5616348407       4.61536142275       9.65187151706                   0                   0                   0                   0
     tauc_C34        1.5085831741       6.36019438622       1.90272035433                   0                   0                   0                   0
     tauc_C35       -1.6195210696       6.32630582282       1.85415733784                   0                   0                   0                   0
     tauc_C36    -0.0484612099274       3.62564615126       1.89621249724                   0                   0                   0                   0


 READING ORBITAL FILE NAMES FOR LCAO
 orbital file: Si_gga_9au_100Ry_3s3p2d.orb
 orbital file: C_gga_9au_100Ry_3s3p2d.orb

                          Volume (Bohr^3) = 5302.84754832
                             Volume (A^3) = 785.799994389

 Lattice vectors: (Cartesian coordinate: in unit of a_0)
       +9.47852736799                  +0                  +0
       -4.85301142685      +7.99885264997                  +0
      -0.213846025732     +0.144814790171      +10.3643954532
 Reciprocal vectors: (Cartesian coordinate: in unit of 2 pi/a_0)
      +0.105501620787    +0.0640092515312   +0.00128243041711
                   +0     +0.125017929916   -0.00174679221476
                   +0                  -0    +0.0964841610409




 >>>>>>>>>>>>>>>>>>>>>>>>>>>>>>>>>>>>>>>>>>>>>>>>>>>>>>>>>>>>>>>>>>>>>>
 |                                                                    |
 | Reading pseudopotentials files:                                    |
 | The pseudopotential file is in UPF format. The 'NC' indicates that |
 | the type of pseudopotential is 'norm conserving'. Functional of    |
 | exchange and correlation is decided by 4 given parameters in UPF   |
 | file.  We also read in the 'core correction' if there exists.      |
 | Also we can read the valence electrons number and the maximal      |
 | angular momentum used in this pseudopotential. We also read in the |
 | trail wave function, trail atomic density and local-pseudopotential|
 | on logrithmic grid. The non-local pseudopotential projector is also|
 | read in if there is any.                                           |
 |                                                                    |
 <<<<<<<<<<<<<<<<<<<<<<<<<<<<<<<<<<<<<<<<<<<<<<<<<<<<<<<<<<<<<<<<<<<<<<




                PAO radial cut off (Bohr) = 15

 Read in pseudopotential file is Si_ONCV_PBE-1.0.upf
                     pseudopotential type = NC
          exchange-correlation functional = PBE
                 nonlocal core correction = 0
                        valence electrons = 4
                                     lmax = 1
                           number of zeta = 0
                     number of projectors = 4
                           L of projector = 0
                           L of projector = 0
                           L of projector = 1
                           L of projector = 1
                PAO radial cut off (Bohr) = 15

 Read in pseudopotential file is C_ONCV_PBE-1.0.upf
                     pseudopotential type = NC
          exchange-correlation functional = PBE
                 nonlocal core correction = 0
                        valence electrons = 4
                                     lmax = 1
                           number of zeta = 0
                     number of projectors = 4
                           L of projector = 0
                           L of projector = 0
                           L of projector = 1
                           L of projector = 1
     initial pseudo atomic orbital number = 0
                                   NLOCAL = 1584




 >>>>>>>>>>>>>>>>>>>>>>>>>>>>>>>>>>>>>>>>>>>>>>>>>>>>>>>>>>>>>>>>>>>>>>
 |                                                                    |
 | Setup plane waves of charge/potential:                             |
 | Use the energy cutoff and the lattice vectors to generate the      |
 | dimensions of FFT grid. The number of FFT grid on each processor   |
 | is 'nrxx'. The number of plane wave basis in reciprocal space is   |
 | different for charege/potential and wave functions. We also set    |
 | the 'sticks' for the parallel of FFT. The number of plane waves    |
 | is 'npw' in each processor.                                        |
 <<<<<<<<<<<<<<<<<<<<<<<<<<<<<<<<<<<<<<<<<<<<<<<<<<<<<<<<<<<<<<<<<<<<<<





 SETUP THE PLANE WAVE BASIS
 energy cutoff for charge/potential (unit:Ry) = 400
          [fft grid for charge/potential] = 120, 120, 128
                      [fft grid division] = 2, 2, 2
      [big fft grid for charge/potential] = 60, 60, 64
                                     nbxx = 14400
                                     nrxx = 115200

 SETUP PLANE WAVES FOR CHARGE/POTENTIAL
                    number of plane waves = 716373
                         number of sticks = 8621

 PARALLEL PW FOR CHARGE/POTENTIAL
     PROC   COLUMNS(POT)             PW
        1            539          44774
        2            539          44773
        3            539          44773
        4            539          44774
        5            539          44774
        6            539          44774
        7            539          44774
        8            538          44771
        9            539          44774
       10            539          44774
       11            539          44775
       12            538          44771
       13            538          44771
       14            539          44774
       15            539          44774
       16            539          44773
 --------------- sum -------------------
       16           8621         716373
                            number of |g| = 43895
                                  max |g| = 36.1823446263
                                  min |g| = 0.104696938272

 SETUP THE ELECTRONS NUMBER
            electron number of element Si = 4
      total electron number of element Si = 144
             electron number of element C = 4
       total electron number of element C = 144
            AUTOSET number of electrons:  = 288
 DONE : SETUP UNITCELL Time : 0.085220643153 (SEC)





 >>>>>>>>>>>>>>>>>>>>>>>>>>>>>>>>>>>>>>>>>>>>>>>>>>>>>>>>>>>>>>>>>>>>>>
 |                                                                    |
 | Setup K-points                                                     |
 | We setup the k-points according to input parameters.               |
 | The reduced k-points are set according to symmetry operations.     |
 | We treat the spin as another set of k-points.                      |
 |                                                                    |
 <<<<<<<<<<<<<<<<<<<<<<<<<<<<<<<<<<<<<<<<<<<<<<<<<<<<<<<<<<<<<<<<<<<<<<





 SETUP K-POINTS
                                    nspin = 1
                   Input type of k points = Monkhorst-Pack(Gamma)
                                   nkstot = 64
                               nkstot_ibz = 36
      IBZ             DirectX             DirectY             DirectZ              Weight    ibz2bz
        1                   0                   0                   0            0.015625         0
        2                0.75                   0                   0             0.03125         1
        3                 0.5                   0                   0            0.015625         2
        4                   0                0.75                   0             0.03125         4
        5                0.75                0.75                   0             0.03125         5
        6                 0.5                0.75                   0             0.03125         6
        7                0.25                0.75                   0             0.03125         7
        8                   0                 0.5                   0            0.015625         8
        9                0.75                 0.5                   0             0.03125         9
       10                 0.5                 0.5                   0            0.015625        10
       11                   0                   0                0.75             0.03125        16
       12                0.75                   0                0.75             0.03125        17
       13                 0.5                   0                0.75             0.03125        18
       14                0.25                   0                0.75             0.03125        19
       15                   0                0.75                0.75             0.03125        20
       16                0.75                0.75                0.75             0.03125        21
       17                 0.5                0.75                0.75             0.03125        22
       18                0.25                0.75                0.75             0.03125        23
       19                   0                 0.5                0.75             0.03125        24
       20                0.75                 0.5                0.75             0.03125        25
       21                 0.5                 0.5                0.75             0.03125        26
       22                0.25                 0.5                0.75             0.03125        27
       23                   0                0.25                0.75             0.03125        28
       24                0.75                0.25                0.75             0.03125        29
       25                 0.5                0.25                0.75             0.03125        30
       26                0.25                0.25                0.75             0.03125        31
       27                   0                   0                 0.5            0.015625        32
       28                0.75                   0                 0.5             0.03125        33
       29                 0.5                   0                 0.5            0.015625        34
       30                   0                0.75                 0.5             0.03125        36
       31                0.75                0.75                 0.5             0.03125        37
       32                 0.5                0.75                 0.5             0.03125        38
       33                0.25                0.75                 0.5             0.03125        39
       34                   0                 0.5                 0.5            0.015625        40
       35                0.75                 0.5                 0.5             0.03125        41
       36                 0.5                 0.5                 0.5            0.015625        42
                               nkstot now = 36

  KPOINTS            DIRECT_X            DIRECT_Y            DIRECT_Z              WEIGHT
        1                   0                   0                   0            0.015625
        2                0.75                   0                   0             0.03125
        3                 0.5                   0                   0            0.015625
        4                   0                0.75                   0             0.03125
        5                0.75                0.75                   0             0.03125
        6                 0.5                0.75                   0             0.03125
        7                0.25                0.75                   0             0.03125
        8                   0                 0.5                   0            0.015625
        9                0.75                 0.5                   0             0.03125
       10                 0.5                 0.5                   0            0.015625
       11                   0                   0                0.75             0.03125
       12                0.75                   0                0.75             0.03125
       13                 0.5                   0                0.75             0.03125
       14                0.25                   0                0.75             0.03125
       15                   0                0.75                0.75             0.03125
       16                0.75                0.75                0.75             0.03125
       17                 0.5                0.75                0.75             0.03125
       18                0.25                0.75                0.75             0.03125
       19                   0                 0.5                0.75             0.03125
       20                0.75                 0.5                0.75             0.03125
       21                 0.5                 0.5                0.75             0.03125
       22                0.25                 0.5                0.75             0.03125
       23                   0                0.25                0.75             0.03125
       24                0.75                0.25                0.75             0.03125
       25                 0.5                0.25                0.75             0.03125
       26                0.25                0.25                0.75             0.03125
       27                   0                   0                 0.5            0.015625
       28                0.75                   0                 0.5             0.03125
       29                 0.5                   0                 0.5            0.015625
       30                   0                0.75                 0.5             0.03125
       31                0.75                0.75                 0.5             0.03125
       32                 0.5                0.75                 0.5             0.03125
       33                0.25                0.75                 0.5             0.03125
       34                   0                 0.5                 0.5            0.015625
       35                0.75                 0.5                 0.5             0.03125
       36                 0.5                 0.5                 0.5            0.015625

           k-point number in this process = 36
       minimum distributed K point number = 36

  KPOINTS         CARTESIAN_X         CARTESIAN_Y         CARTESIAN_Z              WEIGHT
        1                   0                   0                   0             0.03125
        2     0.0791262155905     0.0480069386484   0.000961822812835              0.0625
        3     0.0527508103937     0.0320046257656   0.000641215208557             0.03125
        4                   0     0.0937634474368   -0.00131009416107              0.0625
        5     0.0791262155905      0.141770386085  -0.000348271348235              0.0625
        6     0.0527508103937      0.125768073202  -0.000668878952513              0.0625
        7     0.0263754051968       0.10976576032  -0.000989486556791              0.0625
        8                   0     0.0625089649579   -0.00087339610738             0.03125
        9     0.0791262155905      0.110515903606   8.84267054552e-05              0.0625
       10     0.0527508103937     0.0945135907234  -0.000232180898823             0.03125
       11                   0                   0     0.0723631207807              0.0625
       12     0.0791262155905     0.0480069386484     0.0733249435935              0.0625
       13     0.0527508103937     0.0320046257656     0.0730043359893              0.0625
       14     0.0263754051968     0.0160023128828      0.072683728385              0.0625
       15                   0     0.0937634474368     0.0710530266196              0.0625
       16     0.0791262155905      0.141770386085     0.0720148494325              0.0625
       17     0.0527508103937      0.125768073202     0.0716942418282              0.0625
       18     0.0263754051968       0.10976576032     0.0713736342239              0.0625
       19                   0     0.0625089649579     0.0714897246733              0.0625
       20     0.0791262155905      0.110515903606     0.0724515474862              0.0625
       21     0.0527508103937     0.0945135907234     0.0721309398819              0.0625
       22     0.0263754051968     0.0785112778407     0.0718103322776              0.0625
       23                   0     0.0312544824789      0.071926422727              0.0625
       24     0.0791262155905     0.0792614211273     0.0728882455399              0.0625
       25     0.0527508103937     0.0632591082445     0.0725676379356              0.0625
       26     0.0263754051968     0.0472567953617     0.0722470303313              0.0625
       27                   0                   0     0.0482420805205             0.03125
       28     0.0791262155905     0.0480069386484     0.0492039033333              0.0625
       29     0.0527508103937     0.0320046257656      0.048883295729             0.03125
       30                   0     0.0937634474368     0.0469319863594              0.0625
       31     0.0791262155905      0.141770386085     0.0478938091722              0.0625
       32     0.0527508103937      0.125768073202      0.047573201568              0.0625
       33     0.0263754051968       0.10976576032     0.0472525939637              0.0625
       34                   0     0.0625089649579     0.0473686844131             0.03125
       35     0.0791262155905      0.110515903606     0.0483305072259              0.0625
       36     0.0527508103937     0.0945135907234     0.0480098996216             0.03125

  KPOINTS            DIRECT_X            DIRECT_Y            DIRECT_Z              WEIGHT
        1                   0                   0                   0             0.03125
        2                0.75                   0                   0              0.0625
        3                 0.5                   0                   0             0.03125
        4                   0                0.75                   0              0.0625
        5                0.75                0.75                   0              0.0625
        6                 0.5                0.75                   0              0.0625
        7                0.25                0.75                   0              0.0625
        8                   0                 0.5                   0             0.03125
        9                0.75                 0.5                   0              0.0625
       10                 0.5                 0.5                   0             0.03125
       11                   0                   0                0.75              0.0625
       12                0.75                   0                0.75              0.0625
       13                 0.5                   0                0.75              0.0625
       14                0.25                   0                0.75              0.0625
       15                   0                0.75                0.75              0.0625
       16                0.75                0.75                0.75              0.0625
       17                 0.5                0.75                0.75              0.0625
       18                0.25                0.75                0.75              0.0625
       19                   0                 0.5                0.75              0.0625
       20                0.75                 0.5                0.75              0.0625
       21                 0.5                 0.5                0.75              0.0625
       22                0.25                 0.5                0.75              0.0625
       23                   0                0.25                0.75              0.0625
       24                0.75                0.25                0.75              0.0625
       25                 0.5                0.25                0.75              0.0625
       26                0.25                0.25                0.75              0.0625
       27                   0                   0                 0.5             0.03125
       28                0.75                   0                 0.5              0.0625
       29                 0.5                   0                 0.5             0.03125
       30                   0                0.75                 0.5              0.0625
       31                0.75                0.75                 0.5              0.0625
       32                 0.5                0.75                 0.5              0.0625
       33                0.25                0.75                 0.5              0.0625
       34                   0                 0.5                 0.5             0.03125
       35                0.75                 0.5                 0.5              0.0625
       36                 0.5                 0.5                 0.5             0.03125
 DONE : INIT K-POINTS Time : 0.0922869176882 (SEC)

                           occupied bands = 144
                                   NLOCAL = 1584
                                   NBANDS = 173
                                   NBANDS = 173




 >>>>>>>>>>>>>>>>>>>>>>>>>>>>>>>>>>>>>>>>>>>>>>>>>>>>>>>>>>>>>>>>>>>>>>
 |                                                                    |
 | Setup numerical orbitals:                                          |
 | This part setup: numerical atomic orbitals, non-local projectors   |
 | and neutral potential (1D). The atomic orbitals information        |
 | including the radius, angular momentum and zeta number.            |
 | The neutral potential is the sum of local part of pseudopotential  |
 | and potential given by atomic charge, they will cancel out beyond  |
 | a certain radius cutoff, because the Z/r character.                |
 |                                                                    |
 <<<<<<<<<<<<<<<<<<<<<<<<<<<<<<<<<<<<<<<<<<<<<<<<<<<<<<<<<<<<<<<<<<<<<<





 SETUP ONE DIMENSIONAL ORBITALS/POTENTIAL
                        delta k  (1/Bohr) = 0.01
                        delta r    (Bohr) = 0.01
                        dr_uniform (Bohr) = 0.001
                        rmax       (Bohr) = 30
                                    kmesh = 1005
      ORBITAL  L  N      nr      dr    RCUT  CHECK_UNIT    NEW_UNIT
            1  0  0     901    0.01       9           1           1
            2  0  1     901    0.01       9           1           1
            3  0  2     901    0.01       9           1           1
            4  1  0     901    0.01       9           1           1
            5  1  1     901    0.01       9           1           1
            6  1  2     901    0.01       9           1           1
            7  2  0     901    0.01       9           1           1
            8  2  1     901    0.01       9           1           1
      ORBITAL  L  N      nr      dr    RCUT  CHECK_UNIT    NEW_UNIT
            1  0  0     901    0.01       9           1           1
            2  0  1     901    0.01       9           1           1
            3  0  2     901    0.01       9           1           1
            4  1  0     901    0.01       9           1           1
            5  1  1     901    0.01       9           1           1
            6  1  2     901    0.01       9           1           1
            7  2  0     901    0.01       9           1           1
            8  2  1     901    0.01       9           1           1
 SET NONLOCAL PSEUDOPOTENTIAL PROJECTORS
 SET NONLOCAL PSEUDOPOTENTIAL PROJECTORS
 max number of nonlocal projetors among all species is 4

 SETUP THE TWO-CENTER INTEGRATION TABLES

 SETUP THE DIVISION OF H/S MATRIX
 divide the H&S matrix using 2D block algorithms.
                                     nb2d = 64
 parameter nb2d is too large: nb2d = 64
 reset nb2d to value 1, this set would make the program keep working but maybe get slower during diagonalization.
                  trace_loc_row dimension = 1584
                  trace_loc_col dimension = 1584
                                     nloc = 156816

 -------------------------------------------
 STEP OF MOLECULAR DYNAMICS : 0
 -------------------------------------------
              searching radius is (Bohr)) = 25.3
         searching radius unit is (Bohr)) = 1.89
1598072
                                 init_chg = atomic
 DONE : INIT SCF Time : 9.47857 (SEC)


 LCAO ALGORITHM --------------- ION=   1  ELEC=   1--------------------------------

 Density error is 0.269965417682

 LCAO ALGORITHM --------------- ION=   1  ELEC=   2--------------------------------

 Density error is 0.15475596315

 LCAO ALGORITHM --------------- ION=   1  ELEC=   3--------------------------------

 Density error is 0.0278694384114

 LCAO ALGORITHM --------------- ION=   1  ELEC=   4--------------------------------

 Density error is 0.0540164956273

 LCAO ALGORITHM --------------- ION=   1  ELEC=   5--------------------------------

 Density error is 0.00879171505646

 LCAO ALGORITHM --------------- ION=   1  ELEC=   6--------------------------------

 Density error is 0.00388929804913

 LCAO ALGORITHM --------------- ION=   1  ELEC=   7--------------------------------

 Density error is 0.00155086217104

 LCAO ALGORITHM --------------- ION=   1  ELEC=   8--------------------------------

 Density error is 0.000830319042568

 LCAO ALGORITHM --------------- ION=   1  ELEC=   9--------------------------------

 Density error is 0.000766767376634

 LCAO ALGORITHM --------------- ION=   1  ELEC=  10--------------------------------

 Density error is 0.000265638087188

 LCAO ALGORITHM --------------- ION=   1  ELEC=  11--------------------------------

 Density error is 7.54370220266e-05

 LCAO ALGORITHM --------------- ION=   1  ELEC=  12--------------------------------

 Density error is 3.42048934944e-05

 LCAO ALGORITHM --------------- ION=   1  ELEC=  13--------------------------------

 Density error is 1.58866083938e-05

 LCAO ALGORITHM --------------- ION=   1  ELEC=  14--------------------------------

 Density error is 6.69895531639e-06

 LCAO ALGORITHM --------------- ION=   1  ELEC=  15--------------------------------

 Density error is 3.44792380113e-06

 LCAO ALGORITHM --------------- ION=   1  ELEC=  16--------------------------------

 Density error is 1.96786278255e-06

 LCAO ALGORITHM --------------- ION=   1  ELEC=  17--------------------------------

 Density error is 9.02246355102e-07

 charge density convergence is achieved
 final etot is -9453.51318146 eV

 ><><><><><><><><><><><><><><><><><><><><><><><><><><><><><><><><><><><

    TOTAL-FORCE (eV/Angstrom)

 ><><><><><><><><><><><><><><><><><><><><><><><><><><><><><><><><><><><

     atom              x              y              z
      Si1         -0.27277513         +0.34925573          +0.2952939
      Si2        -0.031136395          -1.4326561         +0.54347128
      Si3         -0.41794508          -1.8864626          +1.0153669
      Si4         +0.53465577         -0.31565053         -0.43455973
      Si5         +0.22924989          +1.0075497         -0.44584525
      Si6         +0.72044727          +0.6559238          -1.0061408
      Si7          -0.2889181         +0.28092771         +0.16242286
      Si8         -0.10869152          -2.0404982         +0.69474916
      Si9          -0.9558808          -1.6035081          +1.0691102
     Si10        +0.080290555         -0.27787151         +0.20185047
     Si11        +0.045307129          +1.1086181         +0.38599387
     Si12         +0.42475297          +1.1297454        -0.029419165
     Si13         -0.51151729        -0.035186582        -0.088993375
     Si14         -0.29562807         -0.14501146         -0.38833065
     Si15        -0.085342665          -1.6372778          +0.6678984
     Si16         +0.62039075          -0.1442942         -0.58912359
     Si17         +0.20304906       -0.0063095915         -0.19138951
     Si18         +0.34439597         +0.85047289         -0.49380734
     Si19         -0.40054208         +0.27312431          +0.3224294
     Si20        +0.010364913        -0.034660019        -0.061028107
     Si21         -0.26730957          -1.8127705         +0.75788143
     Si22         +0.24979433        +0.092261609         +0.39344471
     Si23          -0.3683011       +0.0036146162          +0.5770707
     Si24        -0.058822096         +0.94191171         +0.54340648
     Si25         +0.14962471         +0.37576683         -0.13746577
     Si26        -0.062781794         +0.39580778         -0.36028083
     Si27        +0.068545203         -0.11532341         -0.36925627
     Si28        +0.048976065          -0.3738213         -0.12960851
     Si29         -0.10543013         -0.34752498         -0.31336004
     Si30          -0.0611554         -0.23406387         -0.05655721
     Si31        +0.020615999         +0.28799318         +0.15552359
     Si32          +0.1002938       +0.0023906034         -0.13986725
     Si33        -0.044501465         +0.11380258         -0.20669006
     Si34         -0.18140172        +0.081375698         +0.69490662
     Si35         -0.21015598        -0.051995373         +0.76522595
     Si36         -0.23735424         +0.30029688         +0.77202737
       C1         -0.32165006         +0.29826941         +0.63661313
       C2         -0.26610607         -0.88397344         +0.28880474
       C3         -0.77352752         -0.96977518         +0.71651596
       C4         +0.33375398         -0.10404897        -0.061639741
       C5       +0.0047740435          +1.5625706          -0.7737574
       C6         +0.41460737          +2.0919768          -1.2023265
       C7         -0.59192516         +0.19147802         +0.90217285
       C8         -0.23063569          -1.0534702         +0.54898032
       C9         -0.67813681         -0.87145226         +0.92071504
      C10         +0.62954087         -0.40611122         -0.97983115
      C11         +0.21828042           +1.730131           -1.732487
      C12         +0.87227719          +1.1810624          -1.9173544
      C13         -0.40162495        +0.016026405         +0.71298864
      C14         +0.10487402         +0.28053683         +0.10786313
      C15         -0.20242952         -0.85984356         +0.22314574
      C16         +0.29874812       -0.0013996945         -0.26097473
      C17        +0.089617512        +0.044815498         +0.16774001
      C18         +0.27863067          +1.8307391         -0.75854321
      C19         -0.60446089         -0.10999305         +0.71530636
      C20       -0.0046884529        -0.057430452         +0.31916813
      C21          -0.2839903         -0.94872513         +0.44703207
      C22         +0.70007819         -0.31211573          -1.0039062
      C23         +0.47031112         -0.23286218         -0.57974354
      C24         +0.61266939           +1.581637          -1.6160413
      C25         -0.10818323         +0.26339683        -0.058858561
      C26         +0.14364569         +0.33993049         +0.27648297
      C27         -0.16272613        -0.063081104       -0.0053324265
      C28        -0.097600785        -0.097808756         +0.23675961
      C29         +0.15048919         -0.28404953         +0.30774169
      C30        -0.097798357       -0.0045776048       +0.0031672749
      C31        +0.036376904         +0.48669017         +0.21096926
      C32         +0.14894253         +0.47191043         +0.29247501
      C33        +0.086276272         +0.12382164         +0.23159685
      C34          +0.1139691         -0.52372442         -0.69357677
      C35         -0.13624891          -0.3313151         -0.53828312
      C36          +0.3687065         -0.13518801          -0.6599325


 ><><><><><><><><><><><><><><><><><><><><><><><><><><><><><><><><><><><

 TOTAL-STRESS (KBAR)

 ><><><><><><><><><><><><><><><><><><><><><><><><><><><><><><><><><><><

              -94.464185             +20.043820             +33.577451
              +20.043820             +28.768566             -25.162854
              +33.577451             -25.162854             -95.070472
 TOTAL-PRESSURE: -53.588697 KBAR


 ------------------------------------------------------------------------------------------------
 Energy              Potential           Kinetic             Temperature         Pressure (KBAR)     
 -347.4067           -347.41008          +0.0033726584       +10                 -53.46395           
 ------------------------------------------------------------------------------------------------

output Pressure for check!
Virtual Pressure is -53.46395 Kbar 
Virial Term is -53.588697 Kbar 
Kenetic Term is +0.12474699 Kbar 


 ><><><><><><><><><><><><><><><><><><><><><><><><><><><><><><><><><><><

 MD STRESS (KBAR)

 ><><><><><><><><><><><><><><><><><><><><><><><><><><><><><><><><><><><

-94.348924     +20.022024     +33.578466     
+20.022024     +28.887207     -25.182146     
+33.578466     -25.182146     -94.930133     



 -------------------------------------------
 STEP OF MOLECULAR DYNAMICS : 1
 -------------------------------------------
 NEW-OLD atomic charge density approx. for the potential !
 searching radius is (Bohr))              = +25.29
 searching radius unit is (Bohr))         = +1.8897261
+1598072
 DONE : INIT SCF Time : +1817.21 (SEC)


 LCAO ALGORITHM --------------- ION=+2    ELEC=+1  --------------------------------

 Density error is +0.000439749251901

 LCAO ALGORITHM --------------- ION=+2    ELEC=+2  --------------------------------

 Density error is +0.000229632236493

 LCAO ALGORITHM --------------- ION=+2    ELEC=+3  --------------------------------

 Density error is +0.000235256484145

 LCAO ALGORITHM --------------- ION=+2    ELEC=+4  --------------------------------

 Density error is +6.03602444497e-05

 LCAO ALGORITHM --------------- ION=+2    ELEC=+5  --------------------------------

 Density error is +4.62894652139e-05

 LCAO ALGORITHM --------------- ION=+2    ELEC=+6  --------------------------------

 Density error is +1.70397066111e-05

 LCAO ALGORITHM --------------- ION=+2    ELEC=+7  --------------------------------

 Density error is +5.64699860765e-06

 LCAO ALGORITHM --------------- ION=+2    ELEC=+8  --------------------------------

 Density error is +1.59441458851e-06

 LCAO ALGORITHM --------------- ION=+2    ELEC=+9  --------------------------------

 Density error is +9.11586030528e-07

 charge density convergence is achieved
 final etot is -9453.5380334 eV

 ><><><><><><><><><><><><><><><><><><><><><><><><><><><><><><><><><><><

    TOTAL-FORCE (eV/Angstrom)

 ><><><><><><><><><><><><><><><><><><><><><><><><><><><><><><><><><><><

 atom    x              y              z              
 Si1     -0.29004701         +0.36932577         +0.26574983         
 Si2     -0.025291472        -1.3807641          +0.51930834         
 Si3     -0.41447772         -1.8982738          +1.0058715          
 Si4     +0.51254838         -0.27940656         -0.43471897         
 Si5     +0.22185889         +0.98158328         -0.45707572         
 Si6     +0.70270778         +0.64313764         -1.0011281          
 Si7     -0.29041319         +0.28903774         +0.16899225         
 Si8     -0.12114043         -2.0258745          +0.68888825         
 Si9     -0.96406689         -1.5889936          +1.0801247          
 Si10    +0.089879078        -0.29752522         +0.19333324         
 Si11    +0.042329303        +1.0738298          +0.37740093         
 Si12    +0.42179264         +1.1417073          -0.025476935        
 Si13    -0.51448705         -0.03487435         -0.09281344         
 Si14    -0.29734961         -0.1528979          -0.40557348         
 Si15    -0.090417577        -1.5970131          +0.67507644         
 Si16    +0.62849751         -0.12998203         -0.6000135          
 Si17    +0.21179697         -0.016496996        -0.21525811         
 Si18    +0.34450635         +0.83691659         -0.5023341          
 Si19    -0.40172308         +0.26136026         +0.32790811         
 Si20    -0.0070848204       -0.045424768        -0.045089982        
 Si21    -0.25553535         -1.7607662          +0.76575882         
 Si22    +0.22993775         +0.089724568        +0.40408788         
 Si23    -0.36474391         +0.0035918042       +0.58635709         
 Si24    -0.080041844        +0.92550004         +0.54594352         
 Si25    +0.15750594         +0.36889291         -0.13442571         
 Si26    -0.053480443        +0.3790386          -0.37720353         
 Si27    +0.075011381        -0.11654048         -0.37328495         
 Si28    +0.065449889        -0.38351092         -0.12319018         
 Si29    -0.10706303         -0.33040553         -0.3195645          
 Si30    -0.053279023        -0.23405139         -0.058733226        
 Si31    +0.0029267451       +0.30915867         +0.14188401         
 Si32    +0.14049392         -0.0012933405       -0.14850816         
 Si33    -0.047874584        +0.1284954          -0.23370454         
 Si34    -0.18880053         +0.084074358        +0.71026317         
 Si35    -0.22726076         -0.054437756        +0.780599           
 Si36    -0.25641704         +0.2878616          +0.77863708         
 C1      -0.29178774         +0.30437238         +0.64199041         
 C2      -0.26016824         -0.88253755         +0.31434341         
 C3      -0.75669772         -0.93708352         +0.72524558         
 C4      +0.32613793         -0.12927935         -0.062334698        
 C5      +0.027418086        +1.5465396          -0.76614047         
 C6      +0.3940547          +2.0623492          -1.1936694          
 C7      -0.58690516         +0.18411195         +0.90091993         
 C8      -0.21272014         -1.0364806          +0.53800918         
 C9      -0.69605883         -0.84049006         +0.92676521         
 C10     +0.61661097         -0.38674077         -0.97475235         
 C11     +0.20884075         +1.7192938          -1.7257935          
 C12     +0.88012041         +1.127031           -1.8892159          
 C13     -0.41107982         -0.0061123795       +0.71396254         
 C14     +0.085447974        +0.27327721         +0.1372429          
 C15     -0.21009285         -0.84171649         +0.21236761         
 C16     +0.2865598          +0.013203346        -0.23592671         
 C17     +0.10971228         +0.038555632        +0.1989548          
 C18     +0.2625292          +1.773932           -0.7477222          
 C19     -0.57424015         -0.11378268         +0.70755885         
 C20     +0.0018786119       -0.045056172        +0.28877962         
 C21     -0.28058395         -0.92386829         +0.4427338          
 C22     +0.70664712         -0.28858498         -1.0016704          
 C23     +0.46913129         -0.22774599         -0.58468151         
 C24     +0.60384473         +1.5485944          -1.6010646          
 C25     -0.11967196         +0.270938           -0.065173077        
 C26     +0.1564705          +0.3356967          +0.27930018         
 C27     -0.17022438         -0.096724584        -0.0061467057       
 C28     -0.08403336         -0.10142443         +0.21957772         
 C29     +0.1442456          -0.28883498         +0.28449943         
 C30     -0.090957988        +0.015124177        +0.014658984        
 C31     +0.054523025        +0.48294469         +0.21943296         
 C32     +0.15672973         +0.46366876         +0.27958123         
 C33     +0.10065671         +0.14259952         +0.25014065         
 C34     +0.12501919         -0.54083717         -0.71922062         
 C35     -0.13340739         -0.31936411         -0.55020374         
 C36     +0.36580391         -0.14027208         -0.64043604         


 ><><><><><><><><><><><><><><><><><><><><><><><><><><><><><><><><><><><

 TOTAL-STRESS (KBAR)

 ><><><><><><><><><><><><><><><><><><><><><><><><><><><><><><><><><><><

 -94.376729             +20.176711             +33.525225             
 +20.176711             +28.323053             -25.097728             
 +33.525225             -25.097728             -95.055879             
 TOTAL-PRESSURE: -53.703185 KBAR


 ------------------------------------------------------------------------------------------------
 Energy              Potential           Kinetic             Temperature         Pressure (KBAR)     
 -347.40334          -347.41099          +0.0076548222       +22.696702          -53.420051          
 ------------------------------------------------------------------------------------------------

output Pressure for check!
Virtual Pressure is -53.420051 Kbar 
Virial Term is -53.703185 Kbar 
Kenetic Term is +0.28313451 Kbar 


 ><><><><><><><><><><><><><><><><><><><><><><><><><><><><><><><><><><><

 MD STRESS (KBAR)

 ><><><><><><><><><><><><><><><><><><><><><><><><><><><><><><><><><><><

-94.103604     +20.215345     +33.526536     
+20.215345     +28.696202     -25.101126     
+33.526536     -25.101126     -94.85275      



 -------------------------------------------
 STEP OF MOLECULAR DYNAMICS : 2
 -------------------------------------------
 first order charge density extrapolation !
 searching radius is (Bohr))              = +25.29
 searching radius unit is (Bohr))         = +1.8897261
+1598720
 DONE : INIT SCF Time : +2817.31 (SEC)


 LCAO ALGORITHM --------------- ION=+3    ELEC=+1  --------------------------------

 Density error is +0.00152547503056

 LCAO ALGORITHM --------------- ION=+3    ELEC=+2  --------------------------------

 Density error is +0.000993586744403

 LCAO ALGORITHM --------------- ION=+3    ELEC=+3  --------------------------------

 Density error is +0.000870681104234

 LCAO ALGORITHM --------------- ION=+3    ELEC=+4  --------------------------------

 Density error is +0.000247653422091

 LCAO ALGORITHM --------------- ION=+3    ELEC=+5  --------------------------------

 Density error is +0.000171907340688

 LCAO ALGORITHM --------------- ION=+3    ELEC=+6  --------------------------------

 Density error is +5.85235176989e-05

 LCAO ALGORITHM --------------- ION=+3    ELEC=+7  --------------------------------

 Density error is +2.57486254643e-05

 LCAO ALGORITHM --------------- ION=+3    ELEC=+8  --------------------------------

 Density error is +5.19014206633e-06

 LCAO ALGORITHM --------------- ION=+3    ELEC=+9  --------------------------------

 Density error is +2.52016236909e-06

 LCAO ALGORITHM --------------- ION=+3    ELEC=+10 --------------------------------

 Density error is +1.28822298067e-06

 LCAO ALGORITHM --------------- ION=+3    ELEC=+11 --------------------------------

 Density error is +5.30086140285e-07

 charge density convergence is achieved
 final etot is -9453.58257448 eV

 ><><><><><><><><><><><><><><><><><><><><><><><><><><><><><><><><><><><

    TOTAL-FORCE (eV/Angstrom)

 ><><><><><><><><><><><><><><><><><><><><><><><><><><><><><><><><><><><

 atom    x              y              z              
 Si1     -0.32437709         +0.41939635         +0.31512452         
 Si2     -0.0148519          -1.3727429          +0.49195763         
 Si3     -0.41521651         -1.8040359          +0.97765453         
 Si4     +0.49418091         -0.28346568         -0.47878371         
 Si5     +0.17870294         +0.94190821         -0.41675115         
 Si6     +0.65806266         +0.62955463         -1.0550925          
 Si7     -0.2798179          +0.32537187         +0.13699666         
 Si8     -0.14228264         -2.0170175          +0.64880295         
 Si9     -0.98255754         -1.6265923          +1.0727597          
 Si10    +0.11804615         -0.35204088         +0.21054787         
 Si11    -0.024834282        +1.0483071          +0.36393193         
 Si12    +0.39976979         +1.1222222          -0.022185473        
 Si13    -0.50247743         -0.031819407        -0.11084658         
 Si14    -0.3628711          -0.19976986         -0.42737162         
 Si15    -0.11439672         -1.5879764          +0.66751989         
 Si16    +0.59443601         -0.15229589         -0.55591915         
 Si17    +0.2190831          +0.11331938         -0.23874465         
 Si18    +0.30466042         +0.77290047         -0.51899356         
 Si19    -0.38755483         +0.28626787         +0.33413596         
 Si20    +0.056163374        -0.082520623        -0.055920043        
 Si21    -0.2494471          -1.7790787          +0.78620048         
 Si22    +0.28355809         +0.13522479         +0.41464704         
 Si23    -0.30859332         -0.012036072        +0.52297019         
 Si24    -0.095528611        +0.87148644         +0.51629867         
 Si25    +0.13393677         +0.27775932         -0.10533899         
 Si26    +0.018424204        +0.39139401         -0.41268515         
 Si27    +0.14188984         -0.056943436        -0.40976105         
 Si28    +0.029103276        -0.39804425         -0.077318462        
 Si29    -0.14013065         -0.3687562          -0.32557656         
 Si30    -0.11910417         -0.25692428         -0.058538076        
 Si31    +0.010689165        +0.32715252         +0.17127196         
 Si32    +0.11702647         -0.021974371        -0.14252561         
 Si33    -0.10071264         +0.13590239         -0.18078939         
 Si34    -0.2343193          +0.054346915        +0.66444994         
 Si35    -0.33027998         -0.07994016         +0.71817051         
 Si36    -0.33669884         +0.32380732         +0.76154895         
 C1      -0.2784219          +0.32226139         +0.60569214         
 C2      -0.18872746         -0.83935104         +0.34603631         
 C3      -0.73484661         -0.94886797         +0.74920443         
 C4      +0.3305263          -0.13959291         +0.001576342        
 C5      +0.038702737        +1.6296367          -0.79460389         
 C6      +0.36692142         +1.9949188          -1.1563839          
 C7      -0.49193657         +0.15145917         +0.89272908         
 C8      -0.18387839         -0.91931239         +0.56794685         
 C9      -0.60800276         -0.89495934         +0.93577            
 C10     +0.53489636         -0.45205048         -1.0016143          
 C11     +0.30290662         +1.6438474          -1.6890772          
 C12     +0.80290968         +1.0892995          -1.9071261          
 C13     -0.34549861         +0.028700144        +0.65768519         
 C14     +0.13999595         +0.2205375          +0.082913706        
 C15     -0.21287836         -0.76941333         +0.14753168         
 C16     +0.33666441         -0.036558598        -0.28985013         
 C17     +0.065196273        -0.02516245         +0.26657525         
 C18     +0.30272603         +1.8068952          -0.6806878          
 C19     -0.58308193         -0.070415185        +0.75853714         
 C20     +0.049805747        -0.10868884         +0.37275056         
 C21     -0.21270753         -0.80816329         +0.43777676         
 C22     +0.64789014         -0.35988987         -0.92189107         
 C23     +0.42069274         -0.11138994         -0.56986895         
 C24     +0.58019704         +1.5157312          -1.5392158          
 C25     -0.059279531        +0.21448241         -0.11550403         
 C26     +0.21434664         +0.41034823         +0.28856024         
 C27     -0.22158582         -0.14005901         +0.01041685         
 C28     -0.14102947         +0.016810256        +0.19692807         
 C29     +0.17770604         -0.29951241         +0.2690546          
 C30     -0.073762208        -0.043986987        -5.8334939e-05      
 C31     +0.084856556        +0.57465521         +0.16182605         
 C32     +0.11308803         +0.38886914         +0.23799887         
 C33     +0.012169077        +0.1790949          +0.19732234         
 C34     +0.18198121         -0.56143693         -0.66425578         
 C35     -0.11449579         -0.25673876         -0.46862524         
 C36     +0.45427331         -0.094344325        -0.5679177          


 ><><><><><><><><><><><><><><><><><><><><><><><><><><><><><><><><><><><

 TOTAL-STRESS (KBAR)

 ><><><><><><><><><><><><><><><><><><><><><><><><><><><><><><><><><><><

 -94.316299             +20.651687             +33.229845             
 +20.651687             +27.625899             -25.160887             
 +33.229845             -25.160887             -95.149340             
 TOTAL-PRESSURE: -53.946580 KBAR


 ------------------------------------------------------------------------------------------------
 Energy              Potential           Kinetic             Temperature         Pressure (KBAR)     
 -347.39233          -347.41263          +0.02029556         +60.176744          -53.195893          
 ------------------------------------------------------------------------------------------------

output Pressure for check!
Virtual Pressure is -53.195893 Kbar 
Virial Term is -53.94658 Kbar 
Kenetic Term is +0.75068674 Kbar 


 ><><><><><><><><><><><><><><><><><><><><><><><><><><><><><><><><><><><

 MD STRESS (KBAR)

 ><><><><><><><><><><><><><><><><><><><><><><><><><><><><><><><><><><><

-93.41816      +20.746897     +33.255508     
+20.746897     +28.386059     -25.280186     
+33.255508     -25.280186     -94.555579     



 -------------------------------------------
 STEP OF MOLECULAR DYNAMICS : 3
 -------------------------------------------
 second order charge density extrapolation !
 searching radius is (Bohr))              = +25.29
 searching radius unit is (Bohr))         = +1.8897261
+1597794
 DONE : INIT SCF Time : +4013.93 (SEC)


 LCAO ALGORITHM --------------- ION=+4    ELEC=+1  --------------------------------

 Density error is +0.00188417770238

 LCAO ALGORITHM --------------- ION=+4    ELEC=+2  --------------------------------

 Density error is +0.00127477284039

 LCAO ALGORITHM --------------- ION=+4    ELEC=+3  --------------------------------

 Density error is +0.00121140515891

 LCAO ALGORITHM --------------- ION=+4    ELEC=+4  --------------------------------

 Density error is +0.00034335186848

 LCAO ALGORITHM --------------- ION=+4    ELEC=+5  --------------------------------

 Density error is +0.000202416381557

 LCAO ALGORITHM --------------- ION=+4    ELEC=+6  --------------------------------

 Density error is +7.00088983144e-05

 LCAO ALGORITHM --------------- ION=+4    ELEC=+7  --------------------------------

 Density error is +2.91850435252e-05

 LCAO ALGORITHM --------------- ION=+4    ELEC=+8  --------------------------------

 Density error is +6.52006933925e-06

 LCAO ALGORITHM --------------- ION=+4    ELEC=+9  --------------------------------

 Density error is +2.81923327006e-06

 LCAO ALGORITHM --------------- ION=+4    ELEC=+10 --------------------------------

 Density error is +1.49839100071e-06

 LCAO ALGORITHM --------------- ION=+4    ELEC=+11 --------------------------------

 Density error is +6.70707969511e-07

 charge density convergence is achieved
 final etot is -9453.62718004 eV

 ><><><><><><><><><><><><><><><><><><><><><><><><><><><><><><><><><><><

    TOTAL-FORCE (eV/Angstrom)

 ><><><><><><><><><><><><><><><><><><><><><><><><><><><><><><><><><><><

 atom    x              y              z              
 Si1     -0.35126701         +0.58103526         +0.28300964         
 Si2     -0.089846602        -1.2347053          +0.37463628         
 Si3     -0.40599357         -1.6642341          +0.92605314         
 Si4     +0.53450774         -0.30291008         -0.50208782         
 Si5     +0.11596883         +0.80932962         -0.4376143          
 Si6     +0.68670908         +0.55567067         -1.0426924          
 Si7     -0.2208471          +0.3087399          +0.15310302         
 Si8     -0.074812464        -2.0030519          +0.57583082         
 Si9     -0.93280058         -1.5855542          +1.0100134          
 Si10    +0.11743102         -0.38768432         +0.17334821         
 Si11    -0.10420917         +1.0664426          +0.32914261         
 Si12    +0.42584486         +1.1424847          -0.03880825         
 Si13    -0.46148483         -0.058025042        -0.018818507        
 Si14    -0.45348098         -0.24931333         -0.50240685         
 Si15    -0.083700016        -1.4907482          +0.66576764         
 Si16    +0.50760226         -0.037932244        -0.53377375         
 Si17    +0.24891572         +0.11812909         -0.3263794          
 Si18    +0.27497079         +0.79167221         -0.60299934         
 Si19    -0.48357327         +0.25120813         +0.41216391         
 Si20    +0.079874994        +0.049585127        +0.068622954        
 Si21    -0.21226666         -1.6814338          +0.78707726         
 Si22    +0.26804674         +0.052208122        +0.42421806         
 Si23    -0.3080618          +0.082816108        +0.60222416         
 Si24    -0.06856676         +0.86737602         +0.58707788         
 Si25    +0.13925001         +0.36357234         -0.15023375         
 Si26    -0.012810323        +0.4712965          -0.46372851         
 Si27    +0.092906243        -0.076055522        -0.41303175         
 Si28    -0.085420694        -0.42178314         -0.031805783        
 Si29    -0.21656491         -0.44824846         -0.42486074         
 Si30    -0.23188528         -0.17235971         -0.11468885         
 Si31    -0.094571894        +0.39569074         +0.23976186         
 Si32    +0.21133453         -0.047182827        -0.1100201          
 Si33    -0.058996346        +0.21548546         -0.094173033        
 Si34    -0.29966565         +0.023985943        +0.74385994         
 Si35    -0.37983339         -0.13913948         +0.72960118         
 Si36    -0.38651468         +0.31592343         +0.82630655         
 C1      -0.28106838         +0.33350895         +0.60138267         
 C2      -0.10468641         -0.68484276         +0.37571812         
 C3      -0.66739525         -0.94624406         +0.84673177         
 C4      +0.19116997         -0.15080937         +0.055709637        
 C5      +0.024667083        +1.6030976          -0.73400745         
 C6      +0.2526335          +1.8925847          -1.0942614          
 C7      -0.38551479         +0.1081412          +0.90444105         
 C8      -0.1040697          -0.87609382         +0.61854627         
 C9      -0.55077511         -0.85644575         +1.0358907          
 C10     +0.51030841         -0.38049141         -1.000001           
 C11     +0.36614459         +1.4312004          -1.6999779          
 C12     +0.76347232         +0.82619744         -1.8753497          
 C13     -0.22869606         +0.1185451          +0.64713609         
 C14     +0.1930021          +0.12414569         +0.21095791         
 C15     -0.18074099         -0.74058989         +0.12300222         
 C16     +0.31814942         -0.029763878        -0.28925161         
 C17     -0.0091259569       -0.062839117        +0.17337366         
 C18     +0.37085559         +1.6509347          -0.62351907         
 C19     -0.53393571         +0.06329365         +0.66724277         
 C20     +0.077008207        -0.15968106         +0.22351975         
 C21     -0.27954072         -0.83667294         +0.33487095         
 C22     +0.61591914         -0.38753785         -0.93196868         
 C23     +0.41802227         -0.14609534         -0.58479123         
 C24     +0.66993052         +1.4105403          -1.5130566          
 C25     +0.038104575        +0.31347221         -0.022993463        
 C26     +0.13845594         +0.29315543         +0.24936246         
 C27     -0.15894648         -0.21119786         +0.070744615        
 C28     -0.074865479        -0.071781975        +0.24247716         
 C29     +0.1480701          -0.21440628         +0.35799217         
 C30     +0.010796725        -0.090488929        -0.10190571         
 C31     +0.12967923         +0.53543632         +0.056940283        
 C32     +0.0029531576       +0.48717072         +0.24812363         
 C33     -0.0024524783       +0.13566285         +0.087247728        
 C34     +0.27294931         -0.53265286         -0.68187994         
 C35     -0.20597934         -0.28780492         -0.52654211         
 C36     +0.56931187         -0.1229375          -0.55560118         


 ><><><><><><><><><><><><><><><><><><><><><><><><><><><><><><><><><><><

 TOTAL-STRESS (KBAR)

 ><><><><><><><><><><><><><><><><><><><><><><><><><><><><><><><><><><><

 -93.494986             +21.344208             +32.968005             
 +21.344208             +25.912123             -24.602082             
 +32.968005             -24.602082             -95.143265             
 TOTAL-PRESSURE: -54.242043 KBAR


 ------------------------------------------------------------------------------------------------
 Energy              Potential           Kinetic             Temperature         Pressure (KBAR)     
 -347.38854          -347.41427          +0.025725725        +76.27729           -53.290507          
 ------------------------------------------------------------------------------------------------

output Pressure for check!
Virtual Pressure is -53.290507 Kbar 
Virial Term is -54.242043 Kbar 
Kenetic Term is +0.95153621 Kbar 


 ><><><><><><><><><><><><><><><><><><><><><><><><><><><><><><><><><><><

 MD STRESS (KBAR)

 ><><><><><><><><><><><><><><><><><><><><><><><><><><><><><><><><><><><

-92.533176     +21.162896     +32.792774     
+21.162896     +26.991035     -24.672705     
+32.792774     -24.672705     -94.329379     



 -------------------------------------------
 STEP OF MOLECULAR DYNAMICS : 4
 -------------------------------------------
 second order charge density extrapolation !
 searching radius is (Bohr))              = +25.29
 searching radius unit is (Bohr))         = +1.8897261
+1598624
 DONE : INIT SCF Time : +5212.86 (SEC)


 LCAO ALGORITHM --------------- ION=+5    ELEC=+1  --------------------------------

 Density error is +0.00241344759985

 LCAO ALGORITHM --------------- ION=+5    ELEC=+2  --------------------------------

 Density error is +0.00141071101696

 LCAO ALGORITHM --------------- ION=+5    ELEC=+3  --------------------------------

 Density error is +0.00131267257996

 LCAO ALGORITHM --------------- ION=+5    ELEC=+4  --------------------------------

 Density error is +0.000330225578732

 LCAO ALGORITHM --------------- ION=+5    ELEC=+5  --------------------------------

 Density error is +0.000228070795346

 LCAO ALGORITHM --------------- ION=+5    ELEC=+6  --------------------------------

 Density error is +9.96993450315e-05

 LCAO ALGORITHM --------------- ION=+5    ELEC=+7  --------------------------------

 Density error is +3.83245713626e-05

 LCAO ALGORITHM --------------- ION=+5    ELEC=+8  --------------------------------

 Density error is +8.20048234136e-06

 LCAO ALGORITHM --------------- ION=+5    ELEC=+9  --------------------------------

 Density error is +5.16458907319e-06

 LCAO ALGORITHM --------------- ION=+5    ELEC=+10 --------------------------------

 Density error is +1.88816179904e-06

 LCAO ALGORITHM --------------- ION=+5    ELEC=+11 --------------------------------

 Density error is +7.51760065585e-07

 charge density convergence is achieved
 final etot is -9453.67251496 eV

 ><><><><><><><><><><><><><><><><><><><><><><><><><><><><><><><><><><><

    TOTAL-FORCE (eV/Angstrom)

 ><><><><><><><><><><><><><><><><><><><><><><><><><><><><><><><><><><><

 atom    x              y              z              
 Si1     -0.34199185         +0.54858218         +0.24986535         
 Si2     +0.10342135         -1.2926248          +0.43753499         
 Si3     -0.36065008         -1.5332288          +0.92083546         
 Si4     +0.59705927         -0.28578497         -0.46147472         
 Si5     +0.095627021        +0.74267857         -0.43066427         
 Si6     +0.75145664         +0.41986863         -1.1593662          
 Si7     -0.18962081         +0.32812523         +0.23881179         
 Si8     +0.047051518        -2.1428131          +0.65206278         
 Si9     -1.034341           -1.5711794          +0.98556571         
 Si10    +0.10642966         -0.41069353         +0.20118902         
 Si11    -0.095810722        +1.1249034          +0.35621671         
 Si12    +0.4004545          +1.1010285          +0.0032359003       
 Si13    -0.56561757         -0.033199446        +0.037572953        
 Si14    -0.42730116         -0.26644583         -0.35671677         
 Si15    -0.079502288        -1.4856943          +0.78162984         
 Si16    +0.4092497          +0.023432108        -0.58714143         
 Si17    +0.22613296         +0.11864603         -0.34471286         
 Si18    +0.38306961         +0.72597166         -0.66645267         
 Si19    -0.35207789         +0.19471444         +0.47563704         
 Si20    +0.016863257        -0.0083438633       +0.044542957        
 Si21    -0.17746154         -1.6848109          +0.73384798         
 Si22    +0.2414968          +0.057796049        +0.48782123         
 Si23    -0.42520498         +0.21311848         +0.56829216         
 Si24    -0.11159885         +0.92936223         +0.58666119         
 Si25    +0.2071033          +0.33944962         -0.27427785         
 Si26    +0.089276132        +0.45258105         -0.48283628         
 Si27    +0.1502196          +0.028120109        -0.52992144         
 Si28    -0.098877018        -0.28860415         -0.034559018        
 Si29    -0.19568603         -0.32108272         -0.36082742         
 Si30    -0.24260889         -0.091522329        +0.006722192        
 Si31    -0.092505868        +0.3034532          +0.15427496         
 Si32    +0.11692912         -0.054222508        -0.031009755        
 Si33    -0.081017461        +0.31559825         -0.065911182        
 Si34    -0.32572255         -0.019224508        +0.71746374         
 Si35    -0.37437362         -0.13454954         +0.7484658          
 Si36    -0.26696378         +0.27352597         +0.7460569          
 C1      -0.18161267         +0.25147348         +0.63814757         
 C2      -0.22383487         -0.57229259         +0.38589149         
 C3      -0.68128488         -0.88199481         +0.74087525         
 C4      +0.062357301        -0.30519436         +0.15020645         
 C5      +0.14700378         +1.7389388          -0.80354558         
 C6      +0.11156312         +2.0663927          -1.0807361          
 C7      -0.3520249          +0.17204293         +0.81558046         
[...]
 C14     +0.32820592         -0.16162786         +0.46324881         
 C15     -0.16029733         -1.1217028          -0.21660492         
 C16     +0.29695639         -0.38717418         -0.48740506         
 C17     +0.26982215         +0.31767607         +0.33953416         
 C18     +0.30609437         +1.5625612          +0.047954463        
 C19     -0.21181195         +0.095777585        +0.535038           
 C20     +0.16748267         -0.34553366         +0.61272432         
 C21     -0.25264081         -0.40542335         +0.2236421          
 C22     +0.15722135         -0.39111627         -0.8831365          
 C23     +0.18184759         -0.06590011         -0.27060277         
 C24     +0.036091682        +1.2403729          -1.747046           
 C25     -0.24474571         +0.18398017         -0.083363432        
 C26     -0.21733794         +0.55323871         +0.44512114         
 C27     -0.61666035         -0.43385447         +0.25283925         
 C28     -0.090365095        +0.096979148        -0.31356104         
 C29     +0.15812451         -0.36981665         +0.16550216         
 C30     -0.23250881         -0.1979113          +0.043361576        
 C31     +0.13009151         +0.21120452         +0.42052945         
 C32     +0.28963131         +0.54237999         +0.25059091         
 C33     -0.16618038         +0.21087001         +0.20860176         
 C34     +0.17030649         -0.36331261         -0.59949078         
 C35     -0.11328543         +0.50678659         -0.80085804         
 C36     +0.28361448         +0.00035595482      -0.19861058         


 ><><><><><><><><><><><><><><><><><><><><><><><><><><><><><><><><><><><

 TOTAL-STRESS (KBAR)

 ><><><><><><><><><><><><><><><><><><><><><><><><><><><><><><><><><><><

 -94.368241             +24.452306             +33.435771             
 +24.452306             +23.507291             -24.257304             
 +33.435771             -24.257304             -93.392474             
 TOTAL-PRESSURE: -54.751141 KBAR


 ------------------------------------------------------------------------------------------------
 Energy              Potential           Kinetic             Temperature         Pressure (KBAR)     
 -347.34071          -347.41876          +0.078051265        +231.42357          -51.864202          
 ------------------------------------------------------------------------------------------------

output Pressure for check!
Virtual Pressure is -51.864202 Kbar 
Virial Term is -54.751141 Kbar 
Kenetic Term is +2.8869393 Kbar 


 ><><><><><><><><><><><><><><><><><><><><><><><><><><><><><><><><><><><

 MD STRESS (KBAR)

 ><><><><><><><><><><><><><><><><><><><><><><><><><><><><><><><><><><><

-91.940872     +24.21579      +33.803072     
+24.21579      +26.512309     -24.59687      
+33.803072     -24.59687      -90.164043     



 -------------------------------------------
 STEP OF MOLECULAR DYNAMICS : 10
 -------------------------------------------
 second order charge density extrapolation !
 searching radius is (Bohr))              = +25.29
 searching radius unit is (Bohr))         = +1.8897261
+1599632
 DONE : INIT SCF Time : +12605.9 (SEC)


 LCAO ALGORITHM --------------- ION=+11   ELEC=+1  --------------------------------

 Density error is +0.00344931323102

 LCAO ALGORITHM --------------- ION=+11   ELEC=+2  --------------------------------

 Density error is +0.00209931687637

 LCAO ALGORITHM --------------- ION=+11   ELEC=+3  --------------------------------

 Density error is +0.00189868676493

 LCAO ALGORITHM --------------- ION=+11   ELEC=+4  --------------------------------

 Density error is +0.000532269711325

 LCAO ALGORITHM --------------- ION=+11   ELEC=+5  --------------------------------

 Density error is +0.000398521485636

 LCAO ALGORITHM --------------- ION=+11   ELEC=+6  --------------------------------

 Density error is +0.000135296193755

 LCAO ALGORITHM --------------- ION=+11   ELEC=+7  --------------------------------

 Density error is +5.80725486757e-05

 LCAO ALGORITHM --------------- ION=+11   ELEC=+8  --------------------------------

 Density error is +1.08754826284e-05

 LCAO ALGORITHM --------------- ION=+11   ELEC=+9  --------------------------------

 Density error is +4.28644536204e-06

 LCAO ALGORITHM --------------- ION=+11   ELEC=+10 --------------------------------

 Density error is +1.62437225412e-06

 LCAO ALGORITHM --------------- ION=+11   ELEC=+11 --------------------------------

 Density error is +1.00626694293e-06

 LCAO ALGORITHM --------------- ION=+11   ELEC=+12 --------------------------------

 Density error is +3.46809038031e-07

 charge density convergence is achieved
 final etot is -9453.72563438 eV

 ><><><><><><><><><><><><><><><><><><><><><><><><><><><><><><><><><><><

    TOTAL-FORCE (eV/Angstrom)

 ><><><><><><><><><><><><><><><><><><><><><><><><><><><><><><><><><><><

 atom    x              y              z              
 Si1     -0.39578225         +0.32662318         +0.25122254         
 Si2     -0.2335391          -0.95733569         +0.15570361         
 Si3     -0.10701853         -1.1764449          +1.0745669          
 Si4     +0.75633709         -0.051881413        -0.55109629         
 Si5     +0.28519386         +0.99303312         -0.58172746         
 Si6     +0.93213118         -0.076004046        -1.592745           
 Si7     -0.11810445         +0.55167586         +0.0010883945       
 Si8     +0.3980239          -1.8739411          +0.51111952         
 Si9     -0.84398937         -1.3004185          +0.69756731         
 Si10    +0.41353953         -0.4924009          -0.0086056038       
 Si11    +0.23194739         +1.235753           +0.49339666         
 Si12    +0.069258675        +0.79336503         +0.21409787         
 Si13    -0.13354115         -0.38019694         -0.30324421         
 Si14    -0.32448511         -0.39522751         -0.88293337         
 Si15    +0.1814428          -1.5420138          +1.0672047          
 Si16    +0.45051509         +0.013639952        -0.71258024         
 Si17    +0.19455825         +0.51928859         -0.19152586         
 Si18    +0.55808549         +0.82816537         -0.97085456         
 Si19    +0.019617319        +0.26497441         +0.22354253         
 Si20    -0.10709762         -0.39434611         -0.065570275        
 Si21    -0.27018675         -1.9325485          +0.73024926         
 Si22    +0.31883196         +0.068073026        +0.44237441         
 Si23    -0.52234556         +0.25264337         +0.181801           
 Si24    -0.30714365         +0.59534805         +0.52027972         
 Si25    +0.31374931         +0.036171495        -0.39595094         
 Si26    +0.45046908         +0.38717339         -0.56952529         
 Si27    +0.50262339         -0.46758142         -0.4774543          
 Si28    -0.38807059         -0.29048297         +0.12867636         
 Si29    -0.34081113         -0.30999288         -0.23994689         
 Si30    -0.41639897         +0.010334661        +0.024518017        
 Si31    +0.20612683         +0.44468773         +0.0099153522       
 Si32    +0.091754442        +0.043443954        -0.32087992         
 Si33    -0.25278189         -0.063609332        -0.25296083         
 Si34    -0.29663826         +0.17355416         +0.79337089         
 Si35    -0.16421221         -0.47227874         +0.97417351         
 Si36    -0.55657237         +0.40730414         +0.71361208         
 C1      +0.047224554        +0.13024643         +0.35310982         
 C2      +0.12282342         -0.059463372        +0.92524847         
 C3      -0.62739932         -1.0572976          +0.51241301         
 C4      -0.35852136         +0.20210274         +0.32930009         
 C5      -0.13769492         +0.94597851         -0.2642891          
 C6      +0.13872248         +1.6745442          -0.4790468          
 C7      -0.050992683        +0.45226953         +0.51637127         
 C8      -0.17753144         -0.74004457         +0.75874952         
 C9      -0.91864429         -0.79809441         +0.76008972         
 C10     +0.15676299         +0.086984443        -0.98605871         
 C11     +0.27644587         +0.94032652         -1.4681827          
 C12     +0.92557579         +0.5135058          -1.8303434          
 C13     +0.1125125          +0.26133848         +0.92874233         
 C14     +0.40840565         -0.38327492         +0.67465951         
 C15     -0.17849166         -0.87333571         -0.063544741        
 C16     +0.17742842         -0.52587367         -0.33220467         
 C17     +0.35913866         +0.53247469         +0.20842696         
 C18     +0.31316148         +1.5639104          +0.026199831        
 C19     -0.14078855         +0.12921168         +0.64607367         
 C20     +0.11234604         -0.54819538         +0.5472735          
 C21     -0.3301543          -0.33757285         +0.19956663         
 C22     +0.21659852         -0.45431932         -0.80802401         
 C23     +0.1483169          +0.02340212         -0.15466136         
 C24     +0.07241591         +1.412238           -1.6191498          
 C25     -0.33632471         -0.037267664        -0.095548836        
 C26     -0.44278027         +0.51959549         +0.5700395          
 C27     -0.4860171          -0.60949163         +0.23568994         
 C28     -0.30341259         +0.24597575         -0.48585268         
 C29     +0.28535077         -0.25747381         +0.22810879         
 C30     -0.31729945         +0.055931291        +0.14317823         
 C31     +0.19035555         +0.13331498         +0.29824053         
 C32     +0.043140446        +0.75383921         +0.27326293         
 C33     -0.052027209        +0.14980263         +0.20504358         
 C34     +0.14666714         -0.1293822          -0.790622           
 C35     -0.31790424         +0.38262367         -0.86155968         
 C36     +0.32710436         -0.067077143        -0.19157893         


 ><><><><><><><><><><><><><><><><><><><><><><><><><><><><><><><><><><><

 TOTAL-STRESS (KBAR)

 ><><><><><><><><><><><><><><><><><><><><><><><><><><><><><><><><><><><

 -95.664313             +24.069904             +33.745562             
 +24.069904             +24.450003             -24.691464             
 +33.745562             -24.691464             -92.485402             
 TOTAL-PRESSURE: -54.566571 KBAR


 ------------------------------------------------------------------------------------------------
 Energy              Potential           Kinetic             Temperature         Pressure (KBAR)     
 -347.31472          -347.41788          +0.10316449         +305.88477          -50.75075           
 ------------------------------------------------------------------------------------------------

output Pressure for check!
Virtual Pressure is -50.75075 Kbar 
Virial Term is -54.566571 Kbar 
Kenetic Term is +3.8158203 Kbar 


 ><><><><><><><><><><><><><><><><><><><><><><><><><><><><><><><><><><><

 MD STRESS (KBAR)

 ><><><><><><><><><><><><><><><><><><><><><><><><><><><><><><><><><><><

-91.951644     +24.138775     +33.421814     
+24.138775     +28.363493     -25.07669      
+33.421814     -25.07669      -88.6641       




 --------------------------------------------
 !FINAL_ETOT_IS -9453.725634384287 eV
 --------------------------------------------






  |CLASS_NAME---------|NAME---------------|TIME(Sec)-----|CALLS----|AVG------|PER%-------
                       total               +13902         27        +5.1e+02  +1e+02    %
   Driver              driver_line         +13901         1         +1.4e+04  +1e+02    %
   PW_Basis            setup_struc_factor  +1.2384        11        +0.11     +0.0089   %
   ORB_control         read_orb_first      +0.17854       1         +0.18     +0.0013   %
   LCAO_Orbitals       Read_Orbitals       +0.17854       1         +0.18     +0.0013   %
   NOrbital_Lm         extra_uniform       +0.10257       16        +0.0064   +0.00074  %
   ORB_control         set_orb_tables      +7.067         1         +7.1      +0.051    %
   ORB_gen_tables      gen_tables          +7.067         1         +7.1      +0.051    %
   ORB_table_phi       init_Table          +5.5102        1         +5.5      +0.04     %
   ORB_table_phi       cal_ST_Phi12_R      +5.4822        558       +0.0098   +0.039    %
   ORB_table_beta      init_Table_Beta     +1.3667        1         +1.4      +0.0098   %
   ORB_table_beta      VNL_PhiBeta_R       +1.3604        168       +0.0081   +0.0098   %
   ppcell_vl           init_vloc           +0.2665        1         +0.27     +0.0019   %
   Run_MD              md_line             +13894         1         +1.4e+04  +1e+02    %
   Langevin            setup               +1806.9        1         +1.8e+03  +13       %
   MD_func             force_stress        +13893         11        +1.3e+03  +1e+02    %
   ESolver_KS_LCAO     Run                 +12861         11        +1.2e+03  +93       %
   ESolver_KS_LCAO     beforescf           +26.097        11        +2.4      +0.19     %
   ESolver_KS_LCAO     beforesolver        +9.3148        11        +0.85     +0.067    %
   ESolver_KS_LCAO     set_matrix_grid     +5.802         11        +0.53     +0.042    %
   Grid_Technique      init                +3.2551        11        +0.3      +0.023    %
   Grid_BigCell        grid_expansion_index+0.91846       22        +0.042    +0.0066   %
   Record_adj          for_2d              +2.1829        11        +0.2      +0.016    %
   Grid_Driver         Find_atom           +16.908        693864    +2.4e-05  +0.12     %
   Charge              atomic_rho          +14.566        21        +0.69     +0.1      %
   PW_Basis            recip2real          +2.9559        760       +0.0039   +0.021    %
   PW_Basis            gathers_scatterp    +1.5353        760       +0.002    +0.011    %
   Potential           init_pot            +0.99784       11        +0.091    +0.0072   %
   Potential           update_from_charge  +11.731        139       +0.084    +0.084    %
   Potential           cal_v_eff           +11.677        139       +0.084    +0.084    %
   H_Hartree_pw        v_hartree           +1.3211        139       +0.0095   +0.0095   %
   PW_Basis            real2recip          +3.8141        1156      +0.0033   +0.027    %
   PW_Basis            gatherp_scatters    +1.6121        1156      +0.0014   +0.012    %
   PotXC               cal_v_eff           +10.261        139       +0.074    +0.074    %
   XC_Functional       v_xc                +10.202        139       +0.073    +0.073    %
   HSolverLCAO         solve               +12812         128       +1e+02    +92       %
   HamiltLCAO          updateHk            +4513.5        4608      +0.98     +32       %
   OperatorLCAO        init                +3855          9216      +0.42     +28       %
   Veff                contributeHk        +3852.4        4608      +0.84     +28       %
   Gint_interface      cal_gint            +6201.4        267       +23       +45       %
   Gint_interface      cal_gint_vlocal     +3010.9        128       +24       +22       %
   Gint_k              folding_vl_k        +841.52        4608      +0.18     +6.1      %
   Gint_k              Distri              +578.53        4608      +0.13     +4.2      %
   Overlap             contributeHR        +4.4593        11        +0.41     +0.032    %
   LCAO_gen_fixedH     calculate_S_no      +4.4593        11        +0.41     +0.032    %
   Ekinetic<OperatorLCAO>contributeHR        +4.545         11        +0.41     +0.033    %
   Nonlocal<OperatorLCAO>contributeHR        +47.137        11        +4.3      +0.34     %
   LCAO_gen_fixedH     build_Nonlocal_mu_new+149.68        22        +6.8      +1.1      %
   ORB_gen_tables      snap_psibeta_half   +3.3378        1218390   +2.7e-06  +0.024    %
   OperatorLCAO        folding_fixed       +602.28        4608      +0.13     +4.3      %
   LCAO_nnr            folding_fixedH      +594.55        4608      +0.13     +4.3      %
   HSolverLCAO         hamiltSolvePsiK     +2009.5        4608      +0.44     +14       %
   DiagoElpa           elpa_solve          +1995.5        4608      +0.43     +14       %
   ElecStateLCAO       psiToRho            +6288.8        128       +49       +45       %
   elecstate           cal_dm              +260.08        139       +1.9      +1.9      %
   psiMulPsiMpi        pdgemm              +254.19        5004      +0.051    +1.8      %
    Local_Orbital_wfc  wfc_2d_to_grid      +32.912        4608      +0.0071   +0.24     %
   LCAO_Charge         cal_dk_k            +3368.4        128       +26       +24       %
   Record_adj          for_grid            +0.6686        128       +0.0052   +0.0048   %
   Gint_interface      cal_gint_rho        +2651.7        128       +21       +19       %
   Charge              mix_rho             +1.7619        117       +0.015    +0.013    %
   Force_Stress_LCAO   getForceStress      +1032.1        11        +94       +7.4      %
   Forces              cal_force_loc       +0.96148       11        +0.087    +0.0069   %
   Forces              cal_force_ew        +0.94113       11        +0.086    +0.0068   %
   Forces              cal_force_scc       +8.0721        11        +0.73     +0.058    %
   Stress_Func         stress_loc          +6.9306        11        +0.63     +0.05     %
   Stress_Func         stress_ewa          +0.42193       11        +0.038    +0.003    %
   Stress_Func         stress_gga          +0.48176       11        +0.044    +0.0035   %
   Force_LCAO_k        ftable_k            +1014.2        11        +92       +7.3      %
   Force_LCAO_k        allocate_k          +132.76        11        +12       +0.95     %
   Force_LCAO_k        cal_foverlap_k      +35.114        11        +3.2      +0.25     %
   Force_LCAO_k        cal_edm_2d          +34.169        11        +3.1      +0.25     %
   Local_Orbital_Chargecal_dm_R            +12.053        22        +0.55     +0.087    %
   Force_LCAO_k        cal_ftvnl_dphi_k    +0.31014       11        +0.028    +0.0022   %
   Force_LCAO_k        cal_fvl_dphi_k      +538.78        11        +49       +3.9      %
   Gint_interface      cal_gint_force      +538.78        11        +49       +3.9      %
   Force_LCAO_k        cal_fvnl_dbeta_k_new+272.51        11        +25       +2        %
 ----------------------------------------------------------------------------------------

 CLASS_NAME---------|NAME---------------|MEMORY(MB)--------
                                         +2.757e+04
 ORB_table_phi       Jl(x)               +138.2         
 allocate_pvpR       pvpR_reduced        +87.04         
 LocalOrbital_Charge Density_Matrix      +87.04         
 stress_lo           dSR                 +73.23         
 force_lo            dS                  +36.61         
 force_lo            dTVNL               +36.61         
 Force_LCAO_k        dm2d                +12.2          
 ORB_table_phi       Table_SR&TR         +10.58         
 Grid_Meshcell       index2normal        +8.435         
 Grid_Meshcell       index2ucell         +8.435         
 Charge_Mixing       Rrho                +7.031         
 Charge_Mixing       dRrho               +6.152         
 Charge_Mixing       drho                +6.152         
 LocalOrbital_Coef   wfc_k_grid          +4.181         
 init_meshball       meshball_pos        +3.511         
 atoms_on_grid       which_atom          +2.631         
 atoms_on_grid       which_bigcell       +2.631         
 atoms_on_grid       which_unitcell      +2.631         
 ORB_table_beta      Table_NR            +2.045         
 PW_Basis            struc_fac           +1.366         
 ----------------------------------------------------------

 Start  Time  : Mon May 22 14:16:31 2023
 Finish Time  : Mon May 22 18:08:13 2023
 Total  Time  : 3 h 51 mins 42 secs 
