WARNING: Total thread number on this node mismatches with hardware availability. This may cause poor performance.
Info: Local MPI proc number: 16,OpenMP thread number: 1,Total thread number: 16,Local thread limit: 32
 *********************************************************
 *                                                       *
 *                  WELCOME TO ABACUS v3.0               *
 *                                                       *
 *            'Atomic-orbital Based Ab-initio            *
 *                  Computation at UStc'                 *
 *                                                       *
 *          Website: http://abacus.ustc.edu.cn/          *
 *                                                       *
 *********************************************************
 Mon May 22 14:16:29 2023
 MAKE THE DIR         : OUT.ABACUS/
 MAKE THE STRU DIR    : OUT.ABACUS/STRU/
 UNIFORM GRID DIM     : 120 * 120 * 128
 UNIFORM GRID DIM(BIG): 60 * 60 * 64
 DONE(0.12032    SEC) : SETUP UNITCELL
 DONE(0.130465   SEC) : INIT K-POINTS
 ---------------------------------------------------------
 Molecular Dynamics simulations
 ---------------------------------------------------------
 ENSEMBLE                 : Langevin
 Time interval(fs)        : 1
 ---------------------------------------------------------
 SPIN    KPOINTS         PROCESSORS  NBASE       
 1       36              16          1584        
 ---------------------------------------------------------
 Use Systematically Improvable Atomic bases
 ---------------------------------------------------------
 ELEMENT ORBITALS        NBASE       NATOM       XC          
 Si      3s3p2d-9au      22          36          
 C       3s3p2d-9au      22          36          
 ---------------------------------------------------------
 Initial plane wave basis and FFT box
 ---------------------------------------------------------
--------------------------------- INITVEL DONE ------------------------------------
 -------------------------------------------
 STEP OF MOLECULAR DYNAMICS : 0
 -------------------------------------------
 START CHARGE      : atomic
 DONE(9.98568    SEC) : INIT SCF
 ITER   ETOT(eV)       EDIFF(eV)      DRHO       TIME(s)    
 GE1    -9.386276e+03  0.000000e+00   2.696e-01  1.053e+02  
 GE2    -9.441430e+03  -5.515440e+01  1.516e-01  9.923e+01  
 GE3    -9.456370e+03  -1.493983e+01  2.334e-02  9.914e+01  
 GE4    -9.456396e+03  -2.629019e-02  1.058e-03  9.922e+01  
 GE5    -9.456397e+03  -4.049520e-04  2.272e-04  9.923e+01  
 GE6    -9.456397e+03  1.157668e-04   1.895e-04  9.922e+01  
 GE7    -9.456397e+03  -1.623623e-04  5.582e-05  9.899e+01  
 GE8    -9.456397e+03  -8.669906e-06  6.547e-06  9.898e+01  
 GE9    -9.456397e+03  -1.476302e-07  4.188e-06  9.926e+01  
 GE10   -9.456397e+03  -3.424900e-08  5.548e-07  9.895e+01  
 ><><><><><><><><><><><><><><><><><><><><><><
 TOTAL-STRESS (KBAR):
 ><><><><><><><><><><><><><><><><><><><><><><
 -5.960e+01     -6.350e-06     7.370e-11      
 -6.350e-06     -5.960e+01     -1.609e-09     
 7.370e-11      -1.609e-09     -5.842e+01     
 TOTAL-PRESSURE: -5.920e+01 KBAR
 ------------------------------------------------------------------------------------------------
 Energy              Potential           Kinetic             Temperature         Pressure (KBAR)     
 -3.475e+02          -3.475e+02          3.373e-03           1.000e+01           -5.908e+01          
 ------------------------------------------------------------------------------------------------
 -------------------------------------------
 STEP OF MOLECULAR DYNAMICS : 1
 -------------------------------------------
 DONE(1.103e+03  SEC) : INIT SCF
 ITER   ETOT(eV)       EDIFF(eV)      DRHO       TIME(s)    
 GE1    -9.456396e+03  0.000000e+00   4.026e-04  1.038e+02  
 GE2    -9.456396e+03  3.320929e-05   2.110e-04  9.805e+01  
 GE3    -9.456396e+03  -5.498261e-05  2.226e-04  9.796e+01  
 GE4    -9.456396e+03  -1.621163e-04  6.570e-05  9.796e+01  
 GE5    -9.456396e+03  -1.397695e-05  3.644e-05  9.806e+01  
 GE6    -9.456396e+03  -4.741099e-06  1.259e-05  9.792e+01  
 GE7    -9.456396e+03  -4.357845e-07  4.057e-06  9.791e+01  
 GE8    -9.456396e+03  -5.513683e-08  1.413e-06  9.780e+01  
 GE9    -9.456396e+03  -4.674396e-09  4.923e-07  9.789e+01  
 ><><><><><><><><><><><><><><><><><><><><><><
 TOTAL-STRESS (KBAR):
 ><><><><><><><><><><><><><><><><><><><><><><
 -5.955e+01     4.795e-02      -5.684e-02     
 4.795e-02      -5.966e+01     -9.237e-03     
 -5.684e-02     -9.237e-03     -5.839e+01     
 TOTAL-PRESSURE: -5.920e+01 KBAR
 ------------------------------------------------------------------------------------------------
 Energy              Potential           Kinetic             Temperature         Pressure (KBAR)     
 -3.475e+02          -3.475e+02          7.109e-03           2.108e+01           -5.894e+01          
 ------------------------------------------------------------------------------------------------
 -------------------------------------------
 STEP OF MOLECULAR DYNAMICS : 2
 -------------------------------------------
 DONE(2.085e+03  SEC) : INIT SCF
 ITER   ETOT(eV)       EDIFF(eV)      DRHO       TIME(s)    
 GE1    -9.456384e+03  0.000000e+00   1.519e-03  1.038e+02  
 GE2    -9.456383e+03  6.936568e-04   9.764e-04  9.805e+01  
 GE3    -9.456386e+03  -2.489201e-03  8.387e-04  9.819e+01  
 GE4    -9.456388e+03  -1.913479e-03  2.099e-04  9.792e+01  
 GE5    -9.456388e+03  -1.091261e-04  1.518e-04  9.792e+01  
 GE6    -9.456388e+03  -8.516453e-05  5.924e-05  9.811e+01  
 GE7    -9.456388e+03  -1.114172e-05  2.460e-05  9.804e+01  
 GE8    -9.456388e+03  -1.974003e-06  4.866e-06  9.814e+01  
 GE9    -9.456388e+03  -6.643767e-08  1.661e-06  9.822e+01  
 GE10   -9.456388e+03  -5.238974e-09  3.933e-07  9.817e+01  
 ><><><><><><><><><><><><><><><><><><><><><><
 TOTAL-STRESS (KBAR):
 ><><><><><><><><><><><><><><><><><><><><><><
 -5.954e+01     4.180e-01      -3.716e-01     
 4.180e-01      -5.983e+01     -1.709e-01     
 -3.716e-01     -1.709e-01     -5.818e+01     
 TOTAL-PRESSURE: -5.918e+01 KBAR
 ------------------------------------------------------------------------------------------------
 Energy              Potential           Kinetic             Temperature         Pressure (KBAR)     
 -3.475e+02          -3.475e+02          1.906e-02           5.651e+01           -5.848e+01          
 ------------------------------------------------------------------------------------------------
 -------------------------------------------
 STEP OF MOLECULAR DYNAMICS : 3
 -------------------------------------------
 DONE(3.167e+03  SEC) : INIT SCF
 ITER   ETOT(eV)       EDIFF(eV)      DRHO       TIME(s)    
 GE1    -9.456363e+03  0.000000e+00   1.848e-03  1.044e+02  
 GE2    -9.456360e+03  2.790216e-03   1.264e-03  9.852e+01  
 GE3    -9.456364e+03  -3.729881e-03  1.193e-03  9.850e+01  
 GE4    -9.456369e+03  -4.565817e-03  3.110e-04  9.840e+01  
 GE5    -9.456369e+03  -2.854600e-04  1.766e-04  9.841e+01  
 GE6    -9.456369e+03  -1.072417e-04  6.461e-05  9.847e+01  
 GE7    -9.456369e+03  -1.282964e-05  2.678e-05  9.837e+01  
 GE8    -9.456369e+03  -2.288726e-06  6.471e-06  9.846e+01  
 GE9    -9.456369e+03  -1.266464e-07  2.063e-06  9.847e+01  
 GE10   -9.456369e+03  -9.840670e-09  5.016e-07  9.842e+01  
 ><><><><><><><><><><><><><><><><><><><><><><
 TOTAL-STRESS (KBAR):
 ><><><><><><><><><><><><><><><><><><><><><><
 -5.871e+01     9.424e-01      -7.317e-01     
 9.424e-01      -6.034e+01     4.293e-02      
 -7.317e-01     4.293e-02      -5.830e+01     
 TOTAL-PRESSURE: -5.912e+01 KBAR
 ------------------------------------------------------------------------------------------------
 Energy              Potential           Kinetic             Temperature         Pressure (KBAR)     
 -3.475e+02          -3.475e+02          2.416e-02           7.165e+01           -5.822e+01          
 ------------------------------------------------------------------------------------------------
 -------------------------------------------
 STEP OF MOLECULAR DYNAMICS : 4
 -------------------------------------------
 DONE(4.253e+03  SEC) : INIT SCF
 ITER   ETOT(eV)       EDIFF(eV)      DRHO       TIME(s)    
 GE1    -9.456337e+03  0.000000e+00   2.359e-03  1.042e+02  
 GE2    -9.456336e+03  1.495850e-03   1.402e-03  9.843e+01  
 GE3    -9.456341e+03  -4.951326e-03  1.298e-03  9.869e+01  
 GE4    -9.456346e+03  -4.758599e-03  2.995e-04  9.851e+01  
 GE5    -9.456346e+03  -1.760500e-04  2.080e-04  9.851e+01  
 GE6    -9.456346e+03  -1.719006e-04  9.370e-05  9.857e+01  
 GE7    -9.456346e+03  -3.112101e-05  3.434e-05  9.872e+01  
 GE8    -9.456346e+03  -4.010293e-06  7.019e-06  9.860e+01  
 GE9    -9.456346e+03  -1.225753e-07  1.970e-06  9.852e+01  
 GE10   -9.456346e+03  -6.389784e-09  6.129e-07  9.858e+01  
 ><><><><><><><><><><><><><><><><><><><><><><
 TOTAL-STRESS (KBAR):
 ><><><><><><><><><><><><><><><><><><><><><><
 -5.897e+01     1.406e+00      -5.305e-01     
 1.406e+00      -5.972e+01     1.027e-01      
 -5.305e-01     1.027e-01      -5.843e+01     
 TOTAL-PRESSURE: -5.904e+01 KBAR
 ------------------------------------------------------------------------------------------------
 Energy              Potential           Kinetic             Temperature         Pressure (KBAR)     
 -3.475e+02          -3.475e+02          3.887e-02           1.153e+02           -5.760e+01          
 ------------------------------------------------------------------------------------------------
 -------------------------------------------
 STEP OF MOLECULAR DYNAMICS : 5
 -------------------------------------------
 DONE(5.340e+03  SEC) : INIT SCF
 ITER   ETOT(eV)       EDIFF(eV)      DRHO       TIME(s)    
 GE1    -9.456306e+03  0.000000e+00   2.584e-03  1.042e+02  
 GE2    -9.456303e+03  2.962981e-03   1.552e-03  9.823e+01  
 GE3    -9.456309e+03  -5.439603e-03  1.496e-03  9.835e+01  
 GE4    -9.456316e+03  -6.946603e-03  3.649e-04  9.838e+01  
 GE5    -9.456316e+03  -3.133660e-04  2.407e-04  9.825e+01  
 GE6    -9.456316e+03  -2.339753e-04  1.057e-04  9.820e+01  
 GE7    -9.456316e+03  -3.674169e-05  3.439e-05  9.831e+01  
 GE8    -9.456316e+03  -3.939473e-06  6.063e-06  9.831e+01  
 GE9    -9.456316e+03  -9.034793e-08  1.974e-06  9.822e+01  
 GE10   -9.456316e+03  -7.470990e-09  6.400e-07  9.838e+01  
 ><><><><><><><><><><><><><><><><><><><><><><
 TOTAL-STRESS (KBAR):
 ><><><><><><><><><><><><><><><><><><><><><><
 -5.830e+01     1.974e+00      -6.108e-01     
 1.974e+00      -6.080e+01     -9.143e-02     
 -6.108e-01     -9.143e-02     -5.776e+01     
 TOTAL-PRESSURE: -5.895e+01 KBAR
 ------------------------------------------------------------------------------------------------
 Energy              Potential           Kinetic             Temperature         Pressure (KBAR)     
 -3.475e+02          -3.475e+02          4.448e-02           1.319e+02           -5.730e+01          
 ------------------------------------------------------------------------------------------------
 -------------------------------------------
 STEP OF MOLECULAR DYNAMICS : 6
 -------------------------------------------
 DONE(6.424e+03  SEC) : INIT SCF
 ITER   ETOT(eV)       EDIFF(eV)      DRHO       TIME(s)    
 GE1    -9.456282e+03  0.000000e+00   2.661e-03  1.039e+02  
 GE2    -9.456283e+03  -1.165843e-03  1.520e-03  9.826e+01  
 GE3    -9.456288e+03  -4.889156e-03  1.207e-03  9.830e+01  
 GE4    -9.456291e+03  -3.688965e-03  3.159e-04  9.839e+01  
 GE5    -9.456292e+03  -1.858795e-04  1.721e-04  9.831e+01  
 GE6    -9.456292e+03  -9.607792e-05  9.103e-05  9.836e+01  
 GE7    -9.456292e+03  -2.184754e-05  2.154e-05  9.837e+01  
 GE8    -9.456292e+03  -2.049164e-06  1.334e-05  9.832e+01  
 GE9    -9.456292e+03  -6.064634e-07  2.778e-06  9.835e+01  
 GE10   -9.456292e+03  -1.840988e-08  7.369e-07  9.831e+01  
 ><><><><><><><><><><><><><><><><><><><><><><
 TOTAL-STRESS (KBAR):
 ><><><><><><><><><><><><><><><><><><><><><><
 -5.849e+01     2.307e+00      -2.892e-01     
 2.307e+00      -6.045e+01     -5.800e-02     
 -2.892e-01     -5.800e-02     -5.772e+01     
 TOTAL-PRESSURE: -5.889e+01 KBAR
 ------------------------------------------------------------------------------------------------
 Energy              Potential           Kinetic             Temperature         Pressure (KBAR)     
 -3.474e+02          -3.475e+02          6.329e-02           1.877e+02           -5.654e+01          
 ------------------------------------------------------------------------------------------------
 -------------------------------------------
 STEP OF MOLECULAR DYNAMICS : 7
 -------------------------------------------
 DONE(7.508e+03  SEC) : INIT SCF
 ITER   ETOT(eV)       EDIFF(eV)      DRHO       TIME(s)    
 GE1    -9.456207e+03  0.000000e+00   3.298e-03  1.043e+02  
 GE2    -9.456200e+03  7.016232e-03   1.959e-03  9.846e+01  
 GE3    -9.456211e+03  -1.016858e-02  1.932e-03  9.843e+01  
 GE4    -9.456223e+03  -1.215507e-02  4.551e-04  9.848e+01  
 GE5    -9.456223e+03  -5.265935e-04  3.210e-04  9.837e+01  
 GE6    -9.456224e+03  -3.762751e-04  1.336e-04  9.855e+01  
 GE7    -9.456224e+03  -5.507123e-05  4.337e-05  9.847e+01  
 GE8    -9.456224e+03  -6.543476e-06  9.665e-06  9.829e+01  
 GE9    -9.456224e+03  -2.580430e-07  3.143e-06  9.832e+01  
 GE10   -9.456224e+03  -1.962411e-08  8.493e-07  9.834e+01  
 ><><><><><><><><><><><><><><><><><><><><><><
 TOTAL-STRESS (KBAR):
 ><><><><><><><><><><><><><><><><><><><><><><
 -5.878e+01     3.546e+00      3.164e-01      
 3.546e+00      -5.968e+01     -3.967e-01     
 3.164e-01      -3.967e-01     -5.748e+01     
 TOTAL-PRESSURE: -5.865e+01 KBAR
 ------------------------------------------------------------------------------------------------
 Energy              Potential           Kinetic             Temperature         Pressure (KBAR)     
 -3.474e+02          -3.475e+02          7.704e-02           2.284e+02           -5.580e+01          
 ------------------------------------------------------------------------------------------------
 -------------------------------------------
 STEP OF MOLECULAR DYNAMICS : 8
 -------------------------------------------
 DONE(8.594e+03  SEC) : INIT SCF
 ITER   ETOT(eV)       EDIFF(eV)      DRHO       TIME(s)    
 GE1    -9.456153e+03  0.000000e+00   3.571e-03  1.043e+02  
 GE2    -9.456154e+03  -1.247158e-03  2.044e-03  9.844e+01  
 GE3    -9.456164e+03  -9.672499e-03  1.646e-03  9.840e+01  
 GE4    -9.456171e+03  -7.695759e-03  4.455e-04  9.861e+01  
 GE5    -9.456172e+03  -3.896811e-04  2.636e-04  9.846e+01  
 GE6    -9.456172e+03  -2.450895e-04  1.371e-04  9.860e+01  
 GE7    -9.456172e+03  -6.379233e-05  4.899e-05  9.851e+01  
 GE8    -9.456172e+03  -9.562980e-06  1.316e-05  9.845e+01  
 GE9    -9.456172e+03  -5.573513e-07  3.846e-06  9.845e+01  
 GE10   -9.456172e+03  -3.143848e-08  1.034e-06  9.843e+01  
 GE11   -9.456172e+03  -1.610207e-09  3.782e-07  9.844e+01  
 ><><><><><><><><><><><><><><><><><><><><><><
 TOTAL-STRESS (KBAR):
 ><><><><><><><><><><><><><><><><><><><><><><
 -5.967e+01     4.026e+00      7.014e-01      
 4.026e+00      -5.935e+01     -1.056e+00     
 7.014e-01      -1.056e+00     -5.653e+01     
 TOTAL-PRESSURE: -5.852e+01 KBAR
 ------------------------------------------------------------------------------------------------
 Energy              Potential           Kinetic             Temperature         Pressure (KBAR)     
 -3.474e+02          -3.475e+02          7.359e-02           2.182e+02           -5.579e+01          
 ------------------------------------------------------------------------------------------------
 -------------------------------------------
 STEP OF MOLECULAR DYNAMICS : 9
 -------------------------------------------
 DONE(9.778e+03  SEC) : INIT SCF
 ITER   ETOT(eV)       EDIFF(eV)      DRHO       TIME(s)    
 GE1    -9.456117e+03  0.000000e+00   3.456e-03  1.042e+02  
 GE2    -9.456113e+03  4.685918e-03   2.220e-03  9.835e+01  
 GE3    -9.456127e+03  -1.374731e-02  1.975e-03  9.825e+01  
 GE4    -9.456136e+03  -9.969211e-03  4.071e-04  9.829e+01  
 GE5    -9.456137e+03  -2.808046e-04  2.399e-04  9.826e+01  
 GE6    -9.456137e+03  -1.860463e-04  1.343e-04  9.823e+01  
 GE7    -9.456137e+03  -6.388827e-05  5.488e-05  9.827e+01  
 GE8    -9.456137e+03  -1.128612e-05  1.226e-05  9.827e+01  
 GE9    -9.456137e+03  -4.519748e-07  4.125e-06  9.822e+01  
 GE10   -9.456137e+03  -3.589942e-08  1.066e-06  9.809e+01  
 GE11   -9.456137e+03  2.505798e-10   6.163e-07  9.828e+01  
 ><><><><><><><><><><><><><><><><><><><><><><
 TOTAL-STRESS (KBAR):
 ><><><><><><><><><><><><><><><><><><><><><><
 -5.989e+01     3.745e+00      2.943e-01      
 3.745e+00      -5.937e+01     -6.290e-01     
 2.943e-01      -6.290e-01     -5.602e+01     
 TOTAL-PRESSURE: -5.842e+01 KBAR
 ------------------------------------------------------------------------------------------------
 Energy              Potential           Kinetic             Temperature         Pressure (KBAR)     
 -3.474e+02          -3.475e+02          7.727e-02           2.291e+02           -5.556e+01          
 ------------------------------------------------------------------------------------------------
 -------------------------------------------
 STEP OF MOLECULAR DYNAMICS : 10
 -------------------------------------------
 DONE(1.096e+04  SEC) : INIT SCF
 ITER   ETOT(eV)       EDIFF(eV)      DRHO       TIME(s)    
 GE1    -9.456061e+03  0.000000e+00   3.453e-03  1.041e+02  
 GE2    -9.456057e+03  3.409311e-03   2.048e-03  9.822e+01  
 GE3    -9.456068e+03  -1.040221e-02  1.845e-03  9.820e+01  
 GE4    -9.456078e+03  -9.922937e-03  4.919e-04  9.823e+01  
 GE5    -9.456078e+03  -6.503467e-04  3.681e-04  9.825e+01  
 GE6    -9.456079e+03  -4.844999e-04  1.275e-04  9.842e+01  
 GE7    -9.456079e+03  -4.903750e-05  5.074e-05  9.828e+01  
 GE8    -9.456079e+03  -8.754360e-06  1.032e-05  9.826e+01  
 GE9    -9.456079e+03  -2.707298e-07  3.477e-06  9.830e+01  
 GE10   -9.456079e+03  -2.351583e-08  1.001e-06  9.822e+01  
 GE11   -9.456079e+03  -1.011600e-09  4.475e-07  9.824e+01  
 ><><><><><><><><><><><><><><><><><><><><><><
 TOTAL-STRESS (KBAR):
 ><><><><><><><><><><><><><><><><><><><><><><
 -6.136e+01     3.263e+00      6.492e-01      
 3.263e+00      -5.809e+01     -9.093e-01     
 6.492e-01      -9.093e-01     -5.521e+01     
 TOTAL-PRESSURE: -5.822e+01 KBAR
 ------------------------------------------------------------------------------------------------
 Energy              Potential           Kinetic             Temperature         Pressure (KBAR)     
 -3.474e+02          -3.475e+02          1.031e-01           3.058e+02           -5.440e+01          
 ------------------------------------------------------------------------------------------------

  |CLASS_NAME---------|NAME---------------|TIME(Sec)-----|CALLS----|AVG------|PER%-------
                       total               12141          27        4.5e+02   1e+02     %
   Driver              driver_line         12141          1         1.2e+04   1e+02     %
   PW_Basis            setup_struc_factor  1.265          11        0.12      0.01      %
   ORB_control         read_orb_first      0.23348        1         0.23      0.0019    %
   LCAO_Orbitals       Read_Orbitals       0.23347        1         0.23      0.0019    %
   NOrbital_Lm         extra_uniform       0.12645        16        0.0079    0.001     %
   Mathzone_Add1       Uni_Deriv_Phi       0.11147        16        0.007     0.00092   %
   ORB_control         set_orb_tables      7.2227         1         7.2       0.059     %
   ORB_gen_tables      gen_tables          7.2227         1         7.2       0.059     %
   ORB_table_phi       init_Table          5.4035         1         5.4       0.045     %
   ORB_table_phi       cal_ST_Phi12_R      5.3609         558       0.0096    0.044     %
   ORB_table_beta      init_Table_Beta     1.3318         1         1.3       0.011     %
   ORB_table_beta      VNL_PhiBeta_R       1.3199         168       0.0079    0.011     %
   ppcell_vl           init_vloc           0.12457        1         0.12      0.001     %
   Run_MD              md_line             12133          1         1.2e+04   1e+02     %
   Langevin            setup               1093.3         1         1.1e+03   9         %
   MD_func             force_stress        12133          11        1.1e+03   1e+02     %
   ESolver_KS_LCAO     Run                 11102          11        1e+03     91        %
   ESolver_KS_LCAO     beforescf           18.879         11        1.7       0.16      %
   ESolver_KS_LCAO     beforesolver        9.3725         11        0.85      0.077     %
   ESolver_KS_LCAO     set_matrix_grid     5.4139         11        0.49      0.045     %
   atom_arrange        search              0.10183        11        0.0093    0.00084   %
   Grid_Technique      init                2.8078         11        0.26      0.023     %
   Grid_BigCell        grid_expansion_index0.96428        22        0.044     0.0079    %
   Record_adj          for_2d              2.2671         11        0.21      0.019     %
   Grid_Driver         Find_atom           14.406         608616    2.4e-05   0.12      %
   Charge              atomic_rho          6.7589         21        0.32      0.056     %
   PW_Basis            recip2real          2.2831         680       0.0034    0.019     %
   PW_Basis            gathers_scatterp    1.487          680       0.0022    0.012     %
   Potential           init_pot            0.98031        11        0.089     0.0081    %
   Potential           update_from_charge  10.179         123       0.083     0.084     %
   Potential           cal_v_eff           10.135         123       0.082     0.083     %
   H_Hartree_pw        v_hartree           1.0415         123       0.0085    0.0086    %
   PW_Basis            real2recip          3.6809         1028      0.0036    0.03      %
   PW_Basis            gatherp_scatters    2.1721         1028      0.0021    0.018     %
   PotXC               cal_v_eff           9.0171         123       0.073     0.074     %
   XC_Functional       v_xc                8.972          123       0.073     0.074     %
   HSolverLCAO         solve               11064          112       99        91        %
   HamiltLCAO          updateHk            3955.1         4032      0.98      33        %
   OperatorLCAO        init                3348.1         8064      0.42      28        %
   Veff                contributeHk        3345.8         4032      0.83      28        %
   Gint_interface      cal_gint            4057.1         235       17        33        %
   Gint_interface      cal_gint_vlocal     1957.3         112       17        16        %
   Gint_k              folding_vl_k        1388.5         4032      0.34      11        %
   Gint_k              Distri              1167.9         4032      0.29      9.6       %
   Overlap             contributeHR        4.5379         11        0.41      0.037     %
   LCAO_gen_fixedH     calculate_S_no      4.5379         11        0.41      0.037     %
   Ekinetic<OperatorLCAO>contributeHR        4.6126         11        0.42      0.038     %
   Nonlocal<OperatorLCAO>contributeHR        51.093         11        4.6       0.42      %
   LCAO_gen_fixedH     build_Nonlocal_mu_new160.64         22        7.3       1.3       %
   ORB_gen_tables      snap_psibeta_half   3.3619         1241460   2.7e-06   0.028     %
   OperatorLCAO        folding_fixed       546.76         4032      0.14      4.5       %
   LCAO_nnr            folding_fixedH      539.8          4032      0.13      4.4       %
   HSolverLCAO         hamiltSolvePsiK     1773.3         4032      0.44      15        %
   DiagoElpa           elpa_solve          1761.1         4032      0.44      15        %
   ElecStateLCAO       psiToRho            5335.5         112       48        44        %
   elecstate           cal_dm              178.04         123       1.4       1.5       %
   psiMulPsiMpi        pdgemm              173.44         4428      0.039     1.4       %
    Local_Orbital_wfc  wfc_2d_to_grid      29.121         4032      0.0072    0.24      %
   LCAO_Charge         cal_dk_k            2728.2         112       24        22        %
   Record_adj          for_grid            0.58872        112       0.0053    0.0048    %
   Gint_interface      cal_gint_rho        1625.6         112       15        13        %
   Charge              mix_rho             1.4159         101       0.014     0.012     %
   Force_Stress_LCAO   getForceStress      1030.3         11        94        8.5       %
   Forces              cal_force_loc       0.94509        11        0.086     0.0078    %
   Forces              cal_force_ew        0.93818        11        0.085     0.0077    %
   Forces              cal_force_scc       4.2736         11        0.39      0.035     %
   Stress_Func         stress_loc          2.8184         11        0.26      0.023     %
   Stress_Func         stress_ewa          0.42251        11        0.038     0.0035    %
   Stress_Func         stress_gga          0.47435        11        0.043     0.0039    %
   Force_LCAO_k        ftable_k            1020.3         11        93        8.4       %
   Force_LCAO_k        allocate_k          140.43         11        13        1.2       %
   Force_LCAO_k        cal_foverlap_k      31.322         11        2.8       0.26      %
   Force_LCAO_k        cal_edm_2d          30.313         11        2.8       0.25      %
   Local_Orbital_Chargecal_dm_R            12.321         22        0.56      0.1       %
   Force_LCAO_k        cal_ftvnl_dphi_k    0.31105        11        0.028     0.0026    %
   Force_LCAO_k        cal_fvl_dphi_k      474.24         11        43        3.9       %
   Gint_interface      cal_gint_force      474.24         11        43        3.9       %
   Force_LCAO_k        cal_fvnl_dbeta_k_new289.45         11        26        2.4       %
 ----------------------------------------------------------------------------------------

 START  Time  : Mon May 22 14:16:29 2023
 FINISH Time  : Mon May 22 17:38:48 2023
 TOTAL  Time  : 1.2e+04
 SEE INFORMATION IN : OUT.ABACUS/
