                                                                                     
                             WELCOME TO ABACUS v3.0                                  
                                                                                     
               'Atomic-orbital Based Ab-initio Computation at UStc'                  
                                                                                     
                     Website: http://abacus.ustc.edu.cn/                             
                                                                                     
    Version: Parallel, in development
    Processor Number is 16
    Start Time is Mon May 22 14:16:29 2023
                                                                                     
 ------------------------------------------------------------------------------------

 READING GENERAL INFORMATION
                           global_out_dir = OUT.ABACUS/
                           global_in_card = INPUT
                               pseudo_dir = 
                              orbital_dir = 
                                    DRANK = 1
                                    DSIZE = 16
                                   DCOLOR = 1
                                    GRANK = 1
                                    GSIZE = 1
 The esolver type has been set to : ksdft_lcao




 >>>>>>>>>>>>>>>>>>>>>>>>>>>>>>>>>>>>>>>>>>>>>>>>>>>>>>>>>>>>>>>>>>>>>>
 |                                                                    |
 | Reading atom information in unitcell:                              |
 | From the input file and the structure file we know the number of   |
 | different elments in this unitcell, then we list the detail        |
 | information for each element, especially the zeta and polar atomic |
 | orbital number for each element. The total atom number is counted. |
 | We calculate the nearest atom distance for each atom and show the  |
 | Cartesian and Direct coordinates for each atom. We list the file   |
 | address for atomic orbitals. The volume and the lattice vectors    |
 | in real and reciprocal space is also shown.                        |
 |                                                                    |
 <<<<<<<<<<<<<<<<<<<<<<<<<<<<<<<<<<<<<<<<<<<<<<<<<<<<<<<<<<<<<<<<<<<<<<




 READING UNITCELL INFORMATION
                                    ntype = 2
                 atom label for species 1 = Si
                 atom label for species 2 = C
                  lattice constant (Bohr) = 1.88973
              lattice constant (Angstrom) = 1

 READING ATOM TYPE 1
                               atom label = Si
                      L=0, number of zeta = 3
                      L=1, number of zeta = 3
                      L=2, number of zeta = 2
             number of atom for this type = 36
                      start magnetization = FALSE
                      start magnetization = FALSE
                      start magnetization = FALSE
                      start magnetization = FALSE
                      start magnetization = FALSE
                      start magnetization = FALSE
                      start magnetization = FALSE
                      start magnetization = FALSE
                      start magnetization = FALSE
                      start magnetization = FALSE
                      start magnetization = FALSE
                      start magnetization = FALSE
                      start magnetization = FALSE
                      start magnetization = FALSE
                      start magnetization = FALSE
                      start magnetization = FALSE
                      start magnetization = FALSE
                      start magnetization = FALSE
                      start magnetization = FALSE
                      start magnetization = FALSE
                      start magnetization = FALSE
                      start magnetization = FALSE
                      start magnetization = FALSE
                      start magnetization = FALSE
                      start magnetization = FALSE
                      start magnetization = FALSE
                      start magnetization = FALSE
                      start magnetization = FALSE
                      start magnetization = FALSE
                      start magnetization = FALSE
                      start magnetization = FALSE
                      start magnetization = FALSE
                      start magnetization = FALSE
                      start magnetization = FALSE
                      start magnetization = FALSE
                      start magnetization = FALSE

 READING ATOM TYPE 2
                               atom label = C
                      L=0, number of zeta = 3
                      L=1, number of zeta = 3
                      L=2, number of zeta = 2
             number of atom for this type = 36
                      start magnetization = FALSE
                      start magnetization = FALSE
                      start magnetization = FALSE
                      start magnetization = FALSE
                      start magnetization = FALSE
                      start magnetization = FALSE
                      start magnetization = FALSE
                      start magnetization = FALSE
                      start magnetization = FALSE
                      start magnetization = FALSE
                      start magnetization = FALSE
                      start magnetization = FALSE
                      start magnetization = FALSE
                      start magnetization = FALSE
                      start magnetization = FALSE
                      start magnetization = FALSE
                      start magnetization = FALSE
                      start magnetization = FALSE
                      start magnetization = FALSE
                      start magnetization = FALSE
                      start magnetization = FALSE
                      start magnetization = FALSE
                      start magnetization = FALSE
                      start magnetization = FALSE
                      start magnetization = FALSE
                      start magnetization = FALSE
                      start magnetization = FALSE
                      start magnetization = FALSE
                      start magnetization = FALSE
                      start magnetization = FALSE
                      start magnetization = FALSE
                      start magnetization = FALSE
                      start magnetization = FALSE
                      start magnetization = FALSE
                      start magnetization = FALSE
                      start magnetization = FALSE

                        TOTAL ATOM NUMBER = 72

 CARTESIAN COORDINATES ( UNIT = 1.88973 Bohr ).
         atom                   x                   y                   z                 mag                  vx                  vy                  vz
     tauc_Si1     0.0240149998404        1.8186800561       2.55740210238                   0                   0                   0                   0
     tauc_Si2       3.11657351885       7.25043337333       2.50354654053                   0                   0                   0                   0
     tauc_Si3      -3.14085752222       7.21051364553       2.58728606331                   0                   0                   0                   0
     tauc_Si4       4.72085212206       6.37052938152        5.0500482048                   0                   0                   0                   0
     tauc_Si5        1.6390355552      0.923549017397       5.10442922453                   0                   0                   0                   0
     tauc_Si6       7.90863148248      0.975156743423       5.03143606237                   0                   0                   0                   0
     tauc_Si7     0.0932944948174       1.83427335706       7.70515699534                   0                   0                   0                   0
     tauc_Si8       3.19864453422       7.26749611065       7.64918414033                   0                   0                   0                   0
     tauc_Si9      -3.05669837459       7.23282431874       7.73582071105                   0                   0                   0                   0
    tauc_Si10       4.80515968091       6.37992851105       10.2008644368                   0                   0                   0                   0
    tauc_Si11       1.71024964953      0.940333410242       10.2468350761                   0                   0                   0                   0
    tauc_Si12       7.97747136739      0.977513409891       10.1582955624                   0                   0                   0                   0
    tauc_Si13      -1.54796866821       4.52301807623       2.58600176908                   0                   0                   0                   0
    tauc_Si14        1.5809804229       4.54365833504       2.53421037428                   0                   0                   0                   0
    tauc_Si15    -0.0122206885209        7.2361368623       2.54809782742                   0                   0                   0                   0
    tauc_Si16       6.31006643106       3.67038333823       5.03162400932                   0                   0                   0                   0
    tauc_Si17       3.16467761257       3.64773502507       5.08735059941                   0                   0                   0                   0
    tauc_Si18       4.75432872947      0.943342682831       5.06717570868                   0                   0                   0                   0
    tauc_Si19      -1.48624825993        4.5187518357       7.70623627444                   0                   0                   0                   0
    tauc_Si20       1.63115050132       4.55211966487       7.66779698797                   0                   0                   0                   0
    tauc_Si21     0.0673260929509       7.24827361174       7.68561934252                   0                   0                   0                   0
    tauc_Si22       6.39661756172       3.68517764525       10.1653978145                   0                   0                   0                   0
    tauc_Si23       3.25950344471       3.65648510637       10.2220750025                   0                   0                   0                   0
    tauc_Si24       4.83618117516      0.967340790324       10.1995259508                   0                   0                   0                   0
    tauc_Si25       3.13950719707       1.83622619404       2.51549390879                   0                   0                   0                   0
    tauc_Si26       6.28855287293       1.85481922802        2.4774767598                   0                   0                   0                   0
    tauc_Si27       4.70727204402       4.55466699282       2.48232080588                   0                   0                   0                   0
    tauc_Si28        1.5909225251       6.34513664846       5.09522385971                   0                   0                   0                   0
    tauc_Si29      -1.52378001368       6.32534966322       5.15470202457                   0                   0                   0                   0
    tauc_Si30     0.0496797319754       3.63289798466       5.11699251988                   0                   0                   0                   0
    tauc_Si31       3.23596495762       1.84723165821       7.65803130184                   0                   0                   0                   0
    tauc_Si32       6.37030383139       1.88120622929       7.61604423499                   0                   0                   0                   0
    tauc_Si33        4.7856068101       4.56843918036       7.63690442214                   0                   0                   0                   0
    tauc_Si34       1.66902684317        6.3466471863       10.2460645376                   0                   0                   0                   0
    tauc_Si35      -1.46241067293       6.33303461821       10.2757924686                   0                   0                   0                   0
    tauc_Si36      0.114985590716       3.62476482045       10.2592158035                   0                   0                   0                   0
      tauc_C1     0.0530122619188       1.82296285742       4.48876805536                   0                   0                   0                   0
      tauc_C2       3.15505836335       7.26109806409       4.43204582497                   0                   0                   0                   0
      tauc_C3      -3.11013521252       7.21525233868       4.53489604816                   0                   0                   0                   0
      tauc_C4       4.75632513163       6.36471400886        6.9860725504                   0                   0                   0                   0
      tauc_C5       1.66014602533      0.936304895913       7.04180945864                   0                   0                   0                   0
      tauc_C6       7.92610124458      0.968040915757       6.95196165954                   0                   0                   0                   0
      tauc_C7      0.124933514559       1.83637664851       9.62142773168                   0                   0                   0                   0
      tauc_C8       3.22800471843       7.28468837536       9.56654074247                   0                   0                   0                   0
      tauc_C9      -3.04354403423       7.23251677504       9.67279808215                   0                   0                   0                   0
     tauc_C10       4.68505286388       6.36867720127       1.84905856602                   0                   0                   0                   0
     tauc_C11       1.59207218385      0.916102572271       1.90570253753                   0                   0                   0                   0
     tauc_C12       7.85345690957      0.975447366208       1.80906427209                   0                   0                   0                   0
     tauc_C13      -1.53681913937       4.51979350497       4.50445531671                   0                   0                   0                   0
     tauc_C14       1.59592788291        4.5271676634       4.45998520076                   0                   0                   0                   0
     tauc_C15     0.0205490660493       7.23291340632        4.4845468224                   0                   0                   0                   0
     tauc_C16       6.33855429304       3.67496257629       6.97112088997                   0                   0                   0                   0
     tauc_C17        3.2030111833       3.64506596646        7.0081617027                   0                   0                   0                   0
     tauc_C18       4.78502382384      0.957978205296       6.99965075599                   0                   0                   0                   0
     tauc_C19      -1.45515832538        4.5297899572       9.63365857575                   0                   0                   0                   0
     tauc_C20       1.67574424105       4.55427304245       9.59859068354                   0                   0                   0                   0
     tauc_C21     0.0898903307531       7.24727275899       9.62354273912                   0                   0                   0                   0
     tauc_C22       6.26769996053       3.66326555452        1.8268361025                   0                   0                   0                   0
     tauc_C23       3.13391130743       3.64432122934       1.86680881845                   0                   0                   0                   0
     tauc_C24       4.71327588351      0.936337591731        1.8687755148                   0                   0                   0                   0
     tauc_C25       3.19189065798       1.83503501044       4.45570110379                   0                   0                   0                   0
     tauc_C26       6.30714250154       1.85643060084       4.39849328856                   0                   0                   0                   0
     tauc_C27       4.73446215602       4.56488124054       4.42254481745                   0                   0                   0                   0
     tauc_C28       1.62095212998       6.34768065454       7.01053259047                   0                   0                   0                   0
     tauc_C29      -1.52145973949       6.34026535403       7.07271828723                   0                   0                   0                   0
     tauc_C30     0.0769178425943       3.62626619277       7.06120075283                   0                   0                   0                   0
     tauc_C31       3.25273047645       1.85443099633        9.5847121915                   0                   0                   0                   0
     tauc_C32       6.39390927766       1.86837908554        9.5395388965                   0                   0                   0                   0
     tauc_C33       4.79974517979       4.57297576606       9.55802079617                   0                   0                   0                   0
     tauc_C34        1.5668686107       6.35395779495       1.90282362685                   0                   0                   0                   0
     tauc_C35      -1.57110586267       6.31742553629       1.92294874379                   0                   0                   0                   0
     tauc_C36    0.00685151938029       3.62183561022        1.9169897453                   0                   0                   0                   0


 READING ORBITAL FILE NAMES FOR LCAO
 orbital file: Si_gga_9au_100Ry_3s3p2d.orb
 orbital file: C_gga_9au_100Ry_3s3p2d.orb

                          Volume (Bohr^3) = 5442.45444168
                             Volume (A^3) = 806.487576866

 Lattice vectors: (Cartesian coordinate: in unit of a_0)
       +9.29231915413                  +0                  +0
       -4.75921295293      +8.28659453962                  +0
      +0.303596492803    +0.0493968083236      +10.4736484697
 Reciprocal vectors: (Cartesian coordinate: in unit of 2 pi/a_0)
      +0.107615761298    +0.0618066109862   -0.00341092381704
                   +0     +0.120676834762  -0.000569147465004
                   +0                  -0    +0.0954777127469




 >>>>>>>>>>>>>>>>>>>>>>>>>>>>>>>>>>>>>>>>>>>>>>>>>>>>>>>>>>>>>>>>>>>>>>
 |                                                                    |
 | Reading pseudopotentials files:                                    |
 | The pseudopotential file is in UPF format. The 'NC' indicates that |
 | the type of pseudopotential is 'norm conserving'. Functional of    |
 | exchange and correlation is decided by 4 given parameters in UPF   |
 | file.  We also read in the 'core correction' if there exists.      |
 | Also we can read the valence electrons number and the maximal      |
 | angular momentum used in this pseudopotential. We also read in the |
 | trail wave function, trail atomic density and local-pseudopotential|
 | on logrithmic grid. The non-local pseudopotential projector is also|
 | read in if there is any.                                           |
 |                                                                    |
 <<<<<<<<<<<<<<<<<<<<<<<<<<<<<<<<<<<<<<<<<<<<<<<<<<<<<<<<<<<<<<<<<<<<<<




                PAO radial cut off (Bohr) = 15

 Read in pseudopotential file is Si_ONCV_PBE-1.0.upf
                     pseudopotential type = NC
          exchange-correlation functional = PBE
                 nonlocal core correction = 0
                        valence electrons = 4
                                     lmax = 1
                           number of zeta = 0
                     number of projectors = 4
                           L of projector = 0
                           L of projector = 0
                           L of projector = 1
                           L of projector = 1
                PAO radial cut off (Bohr) = 15

 Read in pseudopotential file is C_ONCV_PBE-1.0.upf
                     pseudopotential type = NC
          exchange-correlation functional = PBE
                 nonlocal core correction = 0
                        valence electrons = 4
                                     lmax = 1
                           number of zeta = 0
                     number of projectors = 4
                           L of projector = 0
                           L of projector = 0
                           L of projector = 1
                           L of projector = 1
     initial pseudo atomic orbital number = 0
                                   NLOCAL = 1584




 >>>>>>>>>>>>>>>>>>>>>>>>>>>>>>>>>>>>>>>>>>>>>>>>>>>>>>>>>>>>>>>>>>>>>>
 |                                                                    |
 | Setup plane waves of charge/potential:                             |
 | Use the energy cutoff and the lattice vectors to generate the      |
 | dimensions of FFT grid. The number of FFT grid on each processor   |
 | is 'nrxx'. The number of plane wave basis in reciprocal space is   |
 | different for charege/potential and wave functions. We also set    |
 | the 'sticks' for the parallel of FFT. The number of plane waves    |
 | is 'npw' in each processor.                                        |
 <<<<<<<<<<<<<<<<<<<<<<<<<<<<<<<<<<<<<<<<<<<<<<<<<<<<<<<<<<<<<<<<<<<<<<





 SETUP THE PLANE WAVE BASIS
 energy cutoff for charge/potential (unit:Ry) = 400
          [fft grid for charge/potential] = 120, 120, 128
                      [fft grid division] = 2, 2, 2
      [big fft grid for charge/potential] = 60, 60, 64
                                     nbxx = 14400
                                     nrxx = 115200

 SETUP PLANE WAVES FOR CHARGE/POTENTIAL
                    number of plane waves = 735103
                         number of sticks = 8741

 PARALLEL PW FOR CHARGE/POTENTIAL
     PROC   COLUMNS(POT)             PW
        1            547          45945
        2            547          45945
        3            546          45945
        4            546          45945
        5            546          45944
        6            546          45944
        7            546          45943
        8            546          45943
        9            546          45943
       10            546          45944
       11            546          45943
       12            546          45943
       13            546          45943
       14            547          45944
       15            547          45944
       16            547          45945
 --------------- sum -------------------
       16           8741         735103
                            number of |g| = 44506
                                  max |g| = 36.1823684246
                                  min |g| = 0

 SETUP THE ELECTRONS NUMBER
            electron number of element Si = 4
      total electron number of element Si = 144
             electron number of element C = 4
       total electron number of element C = 144
            AUTOSET number of electrons:  = 288
 DONE : SETUP UNITCELL Time : 0.0861395470096 (SEC)





 >>>>>>>>>>>>>>>>>>>>>>>>>>>>>>>>>>>>>>>>>>>>>>>>>>>>>>>>>>>>>>>>>>>>>>
 |                                                                    |
 | Setup K-points                                                     |
 | We setup the k-points according to input parameters.               |
 | The reduced k-points are set according to symmetry operations.     |
 | We treat the spin as another set of k-points.                      |
 |                                                                    |
 <<<<<<<<<<<<<<<<<<<<<<<<<<<<<<<<<<<<<<<<<<<<<<<<<<<<<<<<<<<<<<<<<<<<<<





 SETUP K-POINTS
                                    nspin = 1
                   Input type of k points = Monkhorst-Pack(Gamma)
                                   nkstot = 64
                               nkstot_ibz = 36
      IBZ             DirectX             DirectY             DirectZ              Weight    ibz2bz
        1                   0                   0                   0            0.015625         0
        2                0.75                   0                   0             0.03125         1
        3                 0.5                   0                   0            0.015625         2
        4                   0                0.75                   0             0.03125         4
        5                0.75                0.75                   0             0.03125         5
        6                 0.5                0.75                   0             0.03125         6
        7                0.25                0.75                   0             0.03125         7
        8                   0                 0.5                   0            0.015625         8
        9                0.75                 0.5                   0             0.03125         9
       10                 0.5                 0.5                   0            0.015625        10
       11                   0                   0                0.75             0.03125        16
       12                0.75                   0                0.75             0.03125        17
       13                 0.5                   0                0.75             0.03125        18
       14                0.25                   0                0.75             0.03125        19
       15                   0                0.75                0.75             0.03125        20
       16                0.75                0.75                0.75             0.03125        21
       17                 0.5                0.75                0.75             0.03125        22
       18                0.25                0.75                0.75             0.03125        23
       19                   0                 0.5                0.75             0.03125        24
       20                0.75                 0.5                0.75             0.03125        25
       21                 0.5                 0.5                0.75             0.03125        26
       22                0.25                 0.5                0.75             0.03125        27
       23                   0                0.25                0.75             0.03125        28
       24                0.75                0.25                0.75             0.03125        29
       25                 0.5                0.25                0.75             0.03125        30
       26                0.25                0.25                0.75             0.03125        31
       27                   0                   0                 0.5            0.015625        32
       28                0.75                   0                 0.5             0.03125        33
       29                 0.5                   0                 0.5            0.015625        34
       30                   0                0.75                 0.5             0.03125        36
       31                0.75                0.75                 0.5             0.03125        37
       32                 0.5                0.75                 0.5             0.03125        38
       33                0.25                0.75                 0.5             0.03125        39
       34                   0                 0.5                 0.5            0.015625        40
       35                0.75                 0.5                 0.5             0.03125        41
       36                 0.5                 0.5                 0.5            0.015625        42
                               nkstot now = 36

  KPOINTS            DIRECT_X            DIRECT_Y            DIRECT_Z              WEIGHT
        1                   0                   0                   0            0.015625
        2                0.75                   0                   0             0.03125
        3                 0.5                   0                   0            0.015625
        4                   0                0.75                   0             0.03125
        5                0.75                0.75                   0             0.03125
        6                 0.5                0.75                   0             0.03125
        7                0.25                0.75                   0             0.03125
        8                   0                 0.5                   0            0.015625
        9                0.75                 0.5                   0             0.03125
       10                 0.5                 0.5                   0            0.015625
       11                   0                   0                0.75             0.03125
       12                0.75                   0                0.75             0.03125
       13                 0.5                   0                0.75             0.03125
       14                0.25                   0                0.75             0.03125
       15                   0                0.75                0.75             0.03125
       16                0.75                0.75                0.75             0.03125
       17                 0.5                0.75                0.75             0.03125
       18                0.25                0.75                0.75             0.03125
       19                   0                 0.5                0.75             0.03125
       20                0.75                 0.5                0.75             0.03125
       21                 0.5                 0.5                0.75             0.03125
       22                0.25                 0.5                0.75             0.03125
       23                   0                0.25                0.75             0.03125
       24                0.75                0.25                0.75             0.03125
       25                 0.5                0.25                0.75             0.03125
       26                0.25                0.25                0.75             0.03125
       27                   0                   0                 0.5            0.015625
       28                0.75                   0                 0.5             0.03125
       29                 0.5                   0                 0.5            0.015625
       30                   0                0.75                 0.5             0.03125
       31                0.75                0.75                 0.5             0.03125
       32                 0.5                0.75                 0.5             0.03125
       33                0.25                0.75                 0.5             0.03125
       34                   0                 0.5                 0.5            0.015625
       35                0.75                 0.5                 0.5             0.03125
       36                 0.5                 0.5                 0.5            0.015625

           k-point number in this process = 36
       minimum distributed K point number = 36

  KPOINTS         CARTESIAN_X         CARTESIAN_Y         CARTESIAN_Z              WEIGHT
        1                   0                   0                   0             0.03125
        2     0.0807118209738     0.0463549582397   -0.00255819286278              0.0625
        3     0.0538078806492     0.0309033054931   -0.00170546190852             0.03125
        4                   0     0.0905076260718  -0.000426860598753              0.0625
        5     0.0807118209738      0.136862584311   -0.00298505346153              0.0625
        6     0.0538078806492      0.121410931565   -0.00213232250727              0.0625
        7     0.0269039403246      0.105959278818   -0.00127959155301              0.0625
        8                   0     0.0603384173812  -0.000284573732502             0.03125
        9     0.0807118209738      0.106693375621   -0.00284276659528              0.0625
       10     0.0538078806492     0.0912417228743   -0.00199003564102             0.03125
       11                   0                   0     0.0716082845602              0.0625
       12     0.0807118209738     0.0463549582397     0.0690500916974              0.0625
       13     0.0538078806492     0.0309033054931     0.0699028226516              0.0625
       14     0.0269039403246     0.0154516527466     0.0707555536059              0.0625
       15                   0     0.0905076260718     0.0711814239614              0.0625
       16     0.0807118209738      0.136862584311     0.0686232310986              0.0625
       17     0.0538078806492      0.121410931565     0.0694759620529              0.0625
       18     0.0269039403246      0.105959278818     0.0703286930072              0.0625
       19                   0     0.0603384173812     0.0713237108277              0.0625
       20     0.0807118209738      0.106693375621     0.0687655179649              0.0625
       21     0.0538078806492     0.0912417228743     0.0696182489191              0.0625
       22     0.0269039403246     0.0757900701277     0.0704709798734              0.0625
       23                   0     0.0301692086906     0.0714659976939              0.0625
       24     0.0807118209738     0.0765241669303     0.0689078048311              0.0625
       25     0.0538078806492     0.0610725141837     0.0697605357854              0.0625
       26     0.0269039403246     0.0456208614372     0.0706132667397              0.0625
       27                   0                   0     0.0477388563734             0.03125
       28     0.0807118209738     0.0463549582397     0.0451806635107              0.0625
       29     0.0538078806492     0.0309033054931     0.0460333944649             0.03125
       30                   0     0.0905076260718     0.0473119957747              0.0625
       31     0.0807118209738      0.136862584311     0.0447538029119              0.0625
       32     0.0538078806492      0.121410931565     0.0456065338662              0.0625
       33     0.0269039403246      0.105959278818     0.0464592648204              0.0625
       34                   0     0.0603384173812     0.0474542826409             0.03125
       35     0.0807118209738      0.106693375621     0.0448960897782              0.0625
       36     0.0538078806492     0.0912417228743     0.0457488207324             0.03125

  KPOINTS            DIRECT_X            DIRECT_Y            DIRECT_Z              WEIGHT
        1                   0                   0                   0             0.03125
        2                0.75                   0                   0              0.0625
        3                 0.5                   0                   0             0.03125
        4                   0                0.75                   0              0.0625
        5                0.75                0.75                   0              0.0625
        6                 0.5                0.75                   0              0.0625
        7                0.25                0.75                   0              0.0625
        8                   0                 0.5                   0             0.03125
        9                0.75                 0.5                   0              0.0625
       10                 0.5                 0.5                   0             0.03125
       11                   0                   0                0.75              0.0625
       12                0.75                   0                0.75              0.0625
       13                 0.5                   0                0.75              0.0625
       14                0.25                   0                0.75              0.0625
       15                   0                0.75                0.75              0.0625
       16                0.75                0.75                0.75              0.0625
       17                 0.5                0.75                0.75              0.0625
       18                0.25                0.75                0.75              0.0625
       19                   0                 0.5                0.75              0.0625
       20                0.75                 0.5                0.75              0.0625
       21                 0.5                 0.5                0.75              0.0625
       22                0.25                 0.5                0.75              0.0625
       23                   0                0.25                0.75              0.0625
       24                0.75                0.25                0.75              0.0625
       25                 0.5                0.25                0.75              0.0625
       26                0.25                0.25                0.75              0.0625
       27                   0                   0                 0.5             0.03125
       28                0.75                   0                 0.5              0.0625
       29                 0.5                   0                 0.5             0.03125
       30                   0                0.75                 0.5              0.0625
       31                0.75                0.75                 0.5              0.0625
       32                 0.5                0.75                 0.5              0.0625
       33                0.25                0.75                 0.5              0.0625
       34                   0                 0.5                 0.5             0.03125
       35                0.75                 0.5                 0.5              0.0625
       36                 0.5                 0.5                 0.5             0.03125
 DONE : INIT K-POINTS Time : 0.0933330557852 (SEC)

                           occupied bands = 144
                                   NLOCAL = 1584
                                   NBANDS = 173
                                   NBANDS = 173




 >>>>>>>>>>>>>>>>>>>>>>>>>>>>>>>>>>>>>>>>>>>>>>>>>>>>>>>>>>>>>>>>>>>>>>
 |                                                                    |
 | Setup numerical orbitals:                                          |
 | This part setup: numerical atomic orbitals, non-local projectors   |
 | and neutral potential (1D). The atomic orbitals information        |
 | including the radius, angular momentum and zeta number.            |
 | The neutral potential is the sum of local part of pseudopotential  |
 | and potential given by atomic charge, they will cancel out beyond  |
 | a certain radius cutoff, because the Z/r character.                |
 |                                                                    |
 <<<<<<<<<<<<<<<<<<<<<<<<<<<<<<<<<<<<<<<<<<<<<<<<<<<<<<<<<<<<<<<<<<<<<<





 SETUP ONE DIMENSIONAL ORBITALS/POTENTIAL
                        delta k  (1/Bohr) = 0.01
                        delta r    (Bohr) = 0.01
                        dr_uniform (Bohr) = 0.001
                        rmax       (Bohr) = 30
                                    kmesh = 1005
      ORBITAL  L  N      nr      dr    RCUT  CHECK_UNIT    NEW_UNIT
            1  0  0     901    0.01       9           1           1
            2  0  1     901    0.01       9           1           1
            3  0  2     901    0.01       9           1           1
            4  1  0     901    0.01       9           1           1
            5  1  1     901    0.01       9           1           1
            6  1  2     901    0.01       9           1           1
            7  2  0     901    0.01       9           1           1
            8  2  1     901    0.01       9           1           1
      ORBITAL  L  N      nr      dr    RCUT  CHECK_UNIT    NEW_UNIT
            1  0  0     901    0.01       9           1           1
            2  0  1     901    0.01       9           1           1
            3  0  2     901    0.01       9           1           1
            4  1  0     901    0.01       9           1           1
            5  1  1     901    0.01       9           1           1
            6  1  2     901    0.01       9           1           1
            7  2  0     901    0.01       9           1           1
            8  2  1     901    0.01       9           1           1
 SET NONLOCAL PSEUDOPOTENTIAL PROJECTORS
 SET NONLOCAL PSEUDOPOTENTIAL PROJECTORS
 max number of nonlocal projetors among all species is 4

 SETUP THE TWO-CENTER INTEGRATION TABLES

 SETUP THE DIVISION OF H/S MATRIX
 divide the H&S matrix using 2D block algorithms.
                                     nb2d = 64
 parameter nb2d is too large: nb2d = 64
 reset nb2d to value 1, this set would make the program keep working but maybe get slower during diagonalization.
                  trace_loc_row dimension = 1584
                  trace_loc_col dimension = 1584
                                     nloc = 156816

 -------------------------------------------
 STEP OF MOLECULAR DYNAMICS : 0
 -------------------------------------------
              searching radius is (Bohr)) = 25.3
         searching radius unit is (Bohr)) = 1.89
1561256
                                 init_chg = atomic
 DONE : INIT SCF Time : 9.98736 (SEC)


 LCAO ALGORITHM --------------- ION=   1  ELEC=   1--------------------------------

 Density error is 0.269605515288

 LCAO ALGORITHM --------------- ION=   1  ELEC=   2--------------------------------

 Density error is 0.161960258268

 LCAO ALGORITHM --------------- ION=   1  ELEC=   3--------------------------------

 Density error is 0.040647889985

 LCAO ALGORITHM --------------- ION=   1  ELEC=   4--------------------------------

 Density error is 0.0919002597194

 LCAO ALGORITHM --------------- ION=   1  ELEC=   5--------------------------------

 Density error is 0.0218200560796

 LCAO ALGORITHM --------------- ION=   1  ELEC=   6--------------------------------

 Density error is 0.0125394172884

 LCAO ALGORITHM --------------- ION=   1  ELEC=   7--------------------------------

 Density error is 0.00697166221534

 LCAO ALGORITHM --------------- ION=   1  ELEC=   8--------------------------------

 Density error is 0.00438693004315

 LCAO ALGORITHM --------------- ION=   1  ELEC=   9--------------------------------

 Density error is 0.00338239149569

 LCAO ALGORITHM --------------- ION=   1  ELEC=  10--------------------------------

 Density error is 0.00297623441303

 LCAO ALGORITHM --------------- ION=   1  ELEC=  11--------------------------------

 Density error is 0.000902872245856

 LCAO ALGORITHM --------------- ION=   1  ELEC=  12--------------------------------

 Density error is 0.000213233310712

 LCAO ALGORITHM --------------- ION=   1  ELEC=  13--------------------------------

 Density error is 0.000120197949175

 LCAO ALGORITHM --------------- ION=   1  ELEC=  14--------------------------------

 Density error is 4.57821483603e-05

 LCAO ALGORITHM --------------- ION=   1  ELEC=  15--------------------------------

 Density error is 3.62731819414e-05

 LCAO ALGORITHM --------------- ION=   1  ELEC=  16--------------------------------

 Density error is 1.44725036909e-05

 LCAO ALGORITHM --------------- ION=   1  ELEC=  17--------------------------------

 Density error is 1.22029409381e-05

 LCAO ALGORITHM --------------- ION=   1  ELEC=  18--------------------------------

 Density error is 1.11374995047e-06

 LCAO ALGORITHM --------------- ION=   1  ELEC=  19--------------------------------

 Density error is 9.31771213777e-07

 charge density convergence is achieved
 final etot is -9449.20647491 eV

 ><><><><><><><><><><><><><><><><><><><><><><><><><><><><><><><><><><><

    TOTAL-FORCE (eV/Angstrom)

 ><><><><><><><><><><><><><><><><><><><><><><><><><><><><><><><><><><><

     atom              x              y              z
      Si1          +1.0440096        +0.053297186          -1.2458769
      Si2         +0.01950763          +1.3553216         -0.69856943
      Si3          +1.1160431          +1.8342681          -1.0338383
      Si4          -1.8067426         -0.72941016         +0.94450057
      Si5         +0.19008732          -1.1063314         +0.27747119
      Si6          -2.4137569          -2.5714172         +0.91984448
      Si7          +1.1438237         -0.19273502          -1.0323994
      Si8         -0.32642073         +0.92425781         -0.63137855
      Si9         +0.43977141          +1.7146117          -0.9009628
     Si10          -1.8679087         -0.61462455          +2.3964102
     Si11         +0.63708923          -1.0389206          +1.8054704
     Si12          -1.8386556          -2.4050433          +2.7838018
     Si13         +0.69494202         +0.35494792          -1.4672234
     Si14         -0.14117181         -0.16205415         -0.86514286
     Si15       -0.0065807674          +1.2907384         -0.87857787
     Si16          -2.2036805          -1.2993472           +1.036106
     Si17         +0.48219297       -0.0056714857         -0.15467637
     Si18          +0.3478403          -1.1931021        +0.065844101
     Si19          +1.0139773         +0.80784542         -0.58763816
     Si20         +0.39402638         -0.15271744         -0.20581166
     Si21         -0.11547769          +1.1907758         -0.39646846
     Si22          -2.0089711          -1.3332403          +2.7942759
     Si23         +0.28339646         +0.21962306          +1.5430485
     Si24         +0.53572051          -1.3215933          +1.7850687
     Si25         +0.39652005         -0.46039327         -0.78229681
     Si26         -0.39798946         -0.55973889          -0.9889705
     Si27         -0.28804258         -0.17592479         -0.54169051
     Si28         +0.31261028          +0.5348171         -0.35018447
     Si29        -0.021742293         +0.70767643         -0.35003897
     Si30         +0.16036062       -0.0054488311         +0.15004436
     Si31         -0.22551588         -0.41924384         -0.50036549
     Si32         -0.49495029         -0.99366336         -0.51044991
     Si33         -0.62462804         -0.22491269         -0.45432074
     Si34         +0.58393438         +0.93064714          +1.2880987
     Si35         +0.79796043          +0.8064694          +1.6063051
     Si36         +0.90665864         +0.64622225          +1.7382322
       C1          +2.1495947         +0.89540585          -1.1304805
       C2         -0.40973782          +1.0853842         +0.33047288
       C3           +1.979184          +2.3625405          -1.2130574
       C4         -0.82060065        -0.035749058         +0.48383084
       C5         +0.25846361          -0.9992537         +0.66124998
       C6         -0.95352669           -1.520899         +0.98913439
       C7          +2.0892488         +0.70689383         -0.80775346
       C8         -0.26957142         +0.87105563         +0.70904531
       C9          +2.1872275          +2.3876285         -0.99257452
      C10           -1.449762         -0.52680445          -1.0852344
      C11         -0.38121326          -1.0775605         -0.72915424
      C12          -1.4308481          -1.9755675         -0.52607491
      C13          +2.2126021          +1.1601138         -0.81543064
      C14         -0.10916819         +0.14538142         +0.19941722
      C15         -0.26965363            +1.16959        +0.091860262
      C16         -0.91832138         -0.48381327         +0.38318343
      C17        +0.056169625         +0.34703299          +0.3966537
      C18         +0.33093821          -1.1460629         +0.55021661
      C19          +2.1171129          +1.1509703         -0.82657848
      C20         -0.17268441         -0.31072147         +0.41277954
      C21        -0.061353968          +1.1457903         +0.20910569
      C22          -1.1868895         -0.49121876          -0.7469074
      C23         -0.37101514        -0.014548942          -1.0641338
      C24         -0.34805263           -1.110413         -0.83897548
      C25         -0.40844168         -0.25095712         -0.15521709
      C26        +0.039134631         -0.38705957         +0.41832576
      C27         -0.40313461         -0.29625088         +0.16225597
      C28        +0.058741025         +0.40256799         +0.39889501
      C29         +0.70044474         +0.17963954         +0.25917006
      C30         +0.11838941         +0.42140076        +0.010193699
      C31        +0.040007092          -0.3706388         +0.24255261
      C32         -0.10060437          -0.2258687         +0.37788459
      C33         +0.11485711         -0.17188107         +0.52017044
      C34         -0.75189483        -0.064120257          -1.4142072
      C35         -0.26453211         +0.37800406          -1.0321778
      C36        -0.089346477         +0.24400386         -0.98608135


 ><><><><><><><><><><><><><><><><><><><><><><><><><><><><><><><><><><><

 TOTAL-STRESS (KBAR)

 ><><><><><><><><><><><><><><><><><><><><><><><><><><><><><><><><><><><

               +5.799935             +42.189929             -45.393349
              +42.189929            -121.653416             -10.509570
              -45.393349             -10.509570            -125.772234
 TOTAL-PRESSURE: -80.541905 KBAR


 ------------------------------------------------------------------------------------------------
 Energy              Potential           Kinetic             Temperature         Pressure (KBAR)     
 -347.24844          -347.25181          +0.0033726584       +10                 -80.420358          
 ------------------------------------------------------------------------------------------------

output Pressure for check!
Virtual Pressure is -80.420358 Kbar 
Virial Term is -80.541905 Kbar 
Kenetic Term is +0.12154704 Kbar 


 ><><><><><><><><><><><><><><><><><><><><><><><><><><><><><><><><><><><

 MD STRESS (KBAR)

 ><><><><><><><><><><><><><><><><><><><><><><><><><><><><><><><><><><><

+5.9122394     +42.168693     -45.39236      
+42.168693     -121.53782     -10.528367     
-45.39236      -10.528367     -125.63549     



 -------------------------------------------
 STEP OF MOLECULAR DYNAMICS : 1
 -------------------------------------------
 NEW-OLD atomic charge density approx. for the potential !
 searching radius is (Bohr))              = +25.29
 searching radius unit is (Bohr))         = +1.8897261
+1561164
 DONE : INIT SCF Time : +2048.53 (SEC)


 LCAO ALGORITHM --------------- ION=+2    ELEC=+1  --------------------------------

 Density error is +0.000426118089314

 LCAO ALGORITHM --------------- ION=+2    ELEC=+2  --------------------------------

 Density error is +0.000253439760556

 LCAO ALGORITHM --------------- ION=+2    ELEC=+3  --------------------------------

 Density error is +0.00025884316551

 LCAO ALGORITHM --------------- ION=+2    ELEC=+4  --------------------------------

 Density error is +6.43977894388e-05

 LCAO ALGORITHM --------------- ION=+2    ELEC=+5  --------------------------------

 Density error is +5.09671321376e-05

 LCAO ALGORITHM --------------- ION=+2    ELEC=+6  --------------------------------

 Density error is +1.86306710341e-05

 LCAO ALGORITHM --------------- ION=+2    ELEC=+7  --------------------------------

 Density error is +6.73445802996e-06

 LCAO ALGORITHM --------------- ION=+2    ELEC=+8  --------------------------------

 Density error is +1.78397233214e-06

 LCAO ALGORITHM --------------- ION=+2    ELEC=+9  --------------------------------

 Density error is +1.22422414216e-06

 LCAO ALGORITHM --------------- ION=+2    ELEC=+10 --------------------------------

 Density error is +4.10538682075e-07

 charge density convergence is achieved
 final etot is -9449.24826186 eV

 ><><><><><><><><><><><><><><><><><><><><><><><><><><><><><><><><><><><

    TOTAL-FORCE (eV/Angstrom)

 ><><><><><><><><><><><><><><><><><><><><><><><><><><><><><><><><><><><

 atom    x              y              z              
 Si1     +1.0113989          +0.062956052        -1.2770786          
 Si2     +0.016665782        +1.3614266          -0.70649418         
 Si3     +1.103035           +1.8069995          -1.0439603          
 Si4     -1.8074075          -0.67968943         +0.93478578         
 Si5     +0.18804099         -1.1116796          +0.27024985         
 Si6     -2.4155468          -2.5705149          +0.92456171         
 Si7     +1.1381473          -0.1883831          -1.0218841          
 Si8     -0.34189211         +0.91798106         -0.6246567          
 Si9     +0.43112006         +1.713413           -0.88317804         
 Si10    -1.8080911          -0.60073814         +2.3666559          
 Si11    +0.63766956         -1.0528419          +1.7950932          
 Si12    -1.8012783          -2.3655147          +2.7694532          
 Si13    +0.68113589         +0.35633786         -1.4710093          
 Si14    -0.14707993         -0.16440769         -0.87930507         
 Si15    -0.012570506        +1.3006886          -0.85567489         
 Si16    -2.1342805          -1.2549952          +1.001769           
 Si17    +0.48571273         -0.020247445        -0.17963054         
 Si18    +0.34387856         -1.1991077          +0.060900257        
 Si19    +1.0051309          +0.79713917         -0.58518462         
 Si20    +0.37598175         -0.15822298         -0.18830975         
 Si21    -0.099896693        +1.2035489          -0.37058896         
 Si22    -2.016095           -1.3328214          +2.7962173          
 Si23    +0.28117214         +0.21242199         +1.5456929          
 Si24    +0.50730265         -1.3245507          +1.7873408          
 Si25    +0.39804979         -0.46990139         -0.77377936         
 Si26    -0.3984898          -0.58000418         -0.99849182         
 Si27    -0.29097726         -0.17402559         -0.54191145         
 Si28    +0.32512038         +0.52674099         -0.34317341         
 Si29    -0.015977512        +0.72808412         -0.35939103         
 Si30    +0.1730119          -0.0068118146       +0.14430234         
 Si31    -0.24086216         -0.40285137         -0.50941568         
 Si32    -0.45642016         -1.0038544          -0.5131036          
 Si33    -0.62989802         -0.20601884         -0.4768267          
 Si34    +0.57040182         +0.93480949         +1.2925838          
 Si35    +0.78503768         +0.81001423         +1.6099898          
 Si36    +0.89064858         +0.63043102         +1.7396966          
 C1      +2.1550806          +0.89578178         -1.1064502          
 C2      -0.40151253         +1.0696082          +0.35455368         
 C3      +1.9657778          +2.3519449          -1.1940426          
 C4      -0.8176203          -0.060265049        +0.47759325         
 C5      +0.27993176         -0.99448523         +0.64832053         
 C6      -0.96621919         -1.5144829          +0.97426542         
 C7      +2.0451004          +0.6814919          -0.78222198         
 C8      -0.2488614          +0.87313018         +0.69774988         
 C9      +2.1087572          +2.355105           -0.9656258          
 C10     -1.4364921          -0.50301873         -1.0751835          
 C11     -0.38725349         -1.0697205          -0.72991122         
 C12     -1.3997556          -1.9666255          -0.51170959         
 C13     +2.1342324          +1.1040015          -0.7856983          
 C14     -0.12244621         +0.14367579         +0.22831292         
 C15     -0.27301142         +1.1712176          +0.078898821        
 C16     -0.91547295         -0.46488768         +0.40355419         
 C17     +0.076021431        +0.3337555          +0.42309822         
 C18     +0.30992751         -1.1518822          +0.53630442         
 C19     +2.1271098          +1.1410548          -0.82219285         
 C20     -0.15964642         -0.29223459         +0.38246414         
 C21     -0.052785731        +1.1461244          +0.2018254          
 C22     -1.1606689          -0.46750258         -0.74145962         
 C23     -0.36678414         -0.015541637        -1.063717           
 C24     -0.35096198         -1.1030831          -0.83515935         
 C25     -0.41381917         -0.23745203         -0.15635907         
 C26     +0.050011917        -0.38426194         +0.42414237         
 C27     -0.40892009         -0.32472752         +0.1599394          
 C28     +0.071144916        +0.39523249         +0.37720253         
 C29     +0.68888276         +0.1694222          +0.22965708         
 C30     +0.12440253         +0.43227714         +0.014655627        
 C31     +0.06177021         -0.36629579         +0.25546729         
 C32     -0.090479763        -0.22802276         +0.36913326         
 C33     +0.12913942         -0.1471702          +0.53633027         
 C34     -0.73421321         -0.082468861        -1.4270752          
 C35     -0.26212873         +0.38378897         -1.0409851          
 C36     -0.090136266        +0.23070628         -0.97192173         


 ><><><><><><><><><><><><><><><><><><><><><><><><><><><><><><><><><><><

 TOTAL-STRESS (KBAR)

 ><><><><><><><><><><><><><><><><><><><><><><><><><><><><><><><><><><><

 +5.389322              +41.937909             -45.382476             
 +41.937909             -121.802873            -10.442056             
 -45.382476             -10.442056             -125.797110            
 TOTAL-PRESSURE: -80.736887 KBAR


 ------------------------------------------------------------------------------------------------
 Energy              Potential           Kinetic             Temperature         Pressure (KBAR)     
 -347.24548          -347.25334          +0.0078633263       +23.31492           -80.453501          
 ------------------------------------------------------------------------------------------------

output Pressure for check!
Virtual Pressure is -80.453501 Kbar 
Virial Term is -80.736887 Kbar 
Kenetic Term is +0.28338597 Kbar 


 ><><><><><><><><><><><><><><><><><><><><><><><><><><><><><><><><><><><

 MD STRESS (KBAR)

 ><><><><><><><><><><><><><><><><><><><><><><><><><><><><><><><><><><><

+5.6414477     +41.966731     -45.372778     
+41.966731     -121.43237     -10.461238     
-45.372778     -10.461238     -125.56958     



 -------------------------------------------
 STEP OF MOLECULAR DYNAMICS : 2
 -------------------------------------------
 first order charge density extrapolation !
 searching radius is (Bohr))              = +25.29
 searching radius unit is (Bohr))         = +1.8897261
+1560704
 DONE : INIT SCF Time : +3158.49 (SEC)


 LCAO ALGORITHM --------------- ION=+3    ELEC=+1  --------------------------------

 Density error is +0.00150703065858

 LCAO ALGORITHM --------------- ION=+3    ELEC=+2  --------------------------------

 Density error is +0.000971875417036

 LCAO ALGORITHM --------------- ION=+3    ELEC=+3  --------------------------------

 Density error is +0.00089993315555

 LCAO ALGORITHM --------------- ION=+3    ELEC=+4  --------------------------------

 Density error is +0.000253777022487

 LCAO ALGORITHM --------------- ION=+3    ELEC=+5  --------------------------------

 Density error is +0.000186683345821

 LCAO ALGORITHM --------------- ION=+3    ELEC=+6  --------------------------------

 Density error is +5.8882519097e-05

 LCAO ALGORITHM --------------- ION=+3    ELEC=+7  --------------------------------

 Density error is +2.57611722645e-05

 LCAO ALGORITHM --------------- ION=+3    ELEC=+8  --------------------------------

 Density error is +6.63340720011e-06

 LCAO ALGORITHM --------------- ION=+3    ELEC=+9  --------------------------------

 Density error is +3.18775475957e-06

 LCAO ALGORITHM --------------- ION=+3    ELEC=+10 --------------------------------

 Density error is +1.42234762869e-06

 LCAO ALGORITHM --------------- ION=+3    ELEC=+11 --------------------------------

 Density error is +5.69306748658e-07

 charge density convergence is achieved
 final etot is -9449.3372095 eV

 ><><><><><><><><><><><><><><><><><><><><><><><><><><><><><><><><><><><

    TOTAL-FORCE (eV/Angstrom)

 ><><><><><><><><><><><><><><><><><><><><><><><><><><><><><><><><><><><

 atom    x              y              z              
 Si1     +0.96401492         +0.10576734         -1.2134344          
 Si2     +0.0052077681       +1.3532065          -0.72808532         
 Si3     +1.0936374          +1.8225318          -1.046773           
 Si4     -1.7414854          -0.62862193         +0.8578235          
 Si5     +0.15552564         -1.1371429          +0.30204838         
 Si6     -2.3986438          -2.5318599          +0.86081206         
 Si7     +1.1334173          -0.1605797          -1.0506067          
 Si8     -0.36958471         +0.87497734         -0.63710003         
 Si9     +0.39354797         +1.693597           -0.90530041         
 Si10    -1.7358803          -0.62831658         +2.3515875          
 Si11    +0.57842274         -1.0808295          +1.7740992          
 Si12    -1.8088912          -2.3351914          +2.7662835          
 Si13    +0.67735725         +0.3659493          -1.4890259          
 Si14    -0.224289           -0.20288663         -0.89698772         
 Si15    -0.040217408        +1.2703187          -0.84442766         
 Si16    -2.1756945          -1.2919379          +1.040124           
 Si17    +0.47864065         +0.096768056        -0.20788974         
 Si18    +0.292621           -1.2335218          +0.053449735        
 Si19    +1.0134912          +0.82317217         -0.57430394         
 Si20    +0.43631609         -0.18234732         -0.19165479         
 Si21    -0.09184357         +1.172511           -0.3422008          
 Si22    -1.8700087          -1.2370189          +2.7762871          
 Si23    +0.32125792         +0.17918925         +1.4791505          
 Si24    +0.47508642         -1.3381679          +1.7703828          
 Si25    +0.35920165         -0.56714852         -0.73898597         
 Si26    -0.34499981         -0.57595021         -1.0229552          
 Si27    -0.24072789         -0.11062074         -0.57051215         
 Si28    +0.28065604         +0.51648019         -0.29822767         
 Si29    -0.033916389        +0.69865883         -0.37373562         
 Si30    +0.11739454         -0.03327119         +0.13677388         
 Si31    -0.22749504         -0.39377427         -0.46181968         
 Si32    -0.48510581         -1.0326909          -0.48935912         
 Si33    -0.68900578         -0.19139567         -0.40900484         
 Si34    +0.51568912         +0.9090892          +1.2544926          
 Si35    +0.68583918         +0.79312521         +1.556885           
 Si36    +0.81694525         +0.65941168         +1.7207704          
 C1      +2.092005           +0.88587134         -1.0994774          
 C2      -0.32435007         +1.0715164          +0.37893293         
 C3      +1.8708053          +2.2631649          -1.1265087          
 C4      -0.77994216         -0.057877538        +0.54134869         
 C5      +0.28865942         -0.93071014         +0.60759942         
 C6      -0.96510626         -1.4943144          +0.96853587         
 C7      +2.1033715          +0.64977475         -0.75715007         
 C8      -0.21270405         +0.92728038         +0.71383269         
 C9      +2.13397            +2.2689742          -0.91535974         
 C10     -1.4903264          -0.56443218         -1.0963529          
 C11     -0.27914999         -1.0504886          -0.73634792         
 C12     -1.4509468          -1.9749594          -0.5428736          
 C13     +2.195163           +1.1425504          -0.8273749          
 C14     -0.05430672         +0.1015939          +0.17173903         
 C15     -0.25899569         +1.1952136          +0.0065291091       
 C16     -0.84276481         -0.51348206         +0.34256019         
 C17     +0.034829268        +0.25667416         +0.48581642         
 C18     +0.3445617          -1.0868724          +0.58330099         
 C19     +2.0160761          +1.1259575          -0.72387726         
 C20     -0.099586709        -0.34215982         +0.46133747         
 C21     +0.027877558        +1.1973408          +0.18855954         
 C22     -1.1914427          -0.5389108          -0.68075357         
 C23     -0.3993775          +0.089196847        -1.049576           
 C24     -0.35985966         -1.0744206          -0.80314799         
 C25     -0.33928251         -0.28363989         -0.19572485         
 C26     +0.10563804         -0.29784693         +0.43699921         
 C27     -0.45604333         -0.35758464         +0.17181153         
 C28     +0.010918724        +0.50265441         +0.3524153          
 C29     +0.71508004         +0.15415324         +0.20584035         
 C30     +0.13433572         +0.35412079         -0.01432026         
 C31     +0.10084757         -0.25886742         +0.20684527         
 C32     -0.1325615          -0.28877433         +0.33361144         
 C33     +0.042889889        -0.099530972        +0.48422824         
 C34     -0.66275423         -0.10663713         -1.3794923          
 C35     -0.2436527          +0.43230737         -0.98238722         
 C36     +0.0096443345       +0.26168448         -0.91969874         


 ><><><><><><><><><><><><><><><><><><><><><><><><><><><><><><><><><><><

 TOTAL-STRESS (KBAR)

 ><><><><><><><><><><><><><><><><><><><><><><><><><><><><><><><><><><><

 +4.765725              +41.864424             -45.552543             
 +41.864424             -122.289011            -10.385357             
 -45.552543             -10.385357             -126.245346            
 TOTAL-PRESSURE: -81.256211 KBAR


 ------------------------------------------------------------------------------------------------
 Energy              Potential           Kinetic             Temperature         Pressure (KBAR)     
 -347.23735          -347.25661          +0.019262528        +57.113782          -80.56201           
 ------------------------------------------------------------------------------------------------

output Pressure for check!
Virtual Pressure is -80.56201 Kbar 
Virial Term is -81.256211 Kbar 
Kenetic Term is +0.69420114 Kbar 


 ><><><><><><><><><><><><><><><><><><><><><><><><><><><><><><><><><><><

 MD STRESS (KBAR)

 ><><><><><><><><><><><><><><><><><><><><><><><><><><><><><><><><><><><

+5.5501998     +41.866201     -45.487243     
+41.866201     -121.60994     -10.498393     
-45.487243     -10.498393     -125.62629     



 -------------------------------------------
 STEP OF MOLECULAR DYNAMICS : 3
 -------------------------------------------
 second order charge density extrapolation !
 searching radius is (Bohr))              = +25.29
 searching radius unit is (Bohr))         = +1.8897261
+1560754
 DONE : INIT SCF Time : +4378.32 (SEC)


 LCAO ALGORITHM --------------- ION=+4    ELEC=+1  --------------------------------

 Density error is +0.00176358624433

 LCAO ALGORITHM --------------- ION=+4    ELEC=+2  --------------------------------

 Density error is +0.00115865729151

 LCAO ALGORITHM --------------- ION=+4    ELEC=+3  --------------------------------

 Density error is +0.00109630077555

 LCAO ALGORITHM --------------- ION=+4    ELEC=+4  --------------------------------

 Density error is +0.00033481114842

 LCAO ALGORITHM --------------- ION=+4    ELEC=+5  --------------------------------

 Density error is +0.000187989329047

 LCAO ALGORITHM --------------- ION=+4    ELEC=+6  --------------------------------

 Density error is +6.27236040185e-05

 LCAO ALGORITHM --------------- ION=+4    ELEC=+7  --------------------------------

 Density error is +3.36248375849e-05

 LCAO ALGORITHM --------------- ION=+4    ELEC=+8  --------------------------------

 Density error is +9.76089652432e-06

 LCAO ALGORITHM --------------- ION=+4    ELEC=+9  --------------------------------

 Density error is +5.08698707196e-06

 LCAO ALGORITHM --------------- ION=+4    ELEC=+10 --------------------------------

 Density error is +1.82173837884e-06

 LCAO ALGORITHM --------------- ION=+4    ELEC=+11 --------------------------------

 Density error is +5.44570056337e-07

 charge density convergence is achieved
 final etot is -9449.34462499 eV

 ><><><><><><><><><><><><><><><><><><><><><><><><><><><><><><><><><><><

    TOTAL-FORCE (eV/Angstrom)

 ><><><><><><><><><><><><><><><><><><><><><><><><><><><><><><><><><><><

 atom    x              y              z              
 Si1     +0.93313996         +0.25640574         -1.23353            
 Si2     -0.086086946        +1.342258           -0.7934296          
 Si3     +1.0752852          +1.8341387          -1.069408           
 Si4     -1.6351351          -0.60570869         +0.81495441         
 Si5     +0.095878458        -1.2292209          +0.2877814          
 Si6     -2.332359           -2.522897           +0.87434447         
 Si7     +1.1883031          -0.18118602         -1.0198612          
 Si8     -0.2967429          +0.82684942         -0.6842134          
 Si9     +0.45427085         +1.6847409          -0.94395976         
 Si10    -1.6576115          -0.6145744          +2.3009548          
 Si11    +0.50789477         -1.0372171          +1.7380216          
 Si12    -1.7322477          -2.2736658          +2.7207875          
 Si13    +0.70875302         +0.35404214         -1.3897731          
 Si14    -0.32583948         -0.24516508         -0.96910346         
 Si15    -0.014401334        +1.296892           -0.81714584         
 Si16    -2.298033           -1.2144344          +1.0727719          
 Si17    +0.49645833         +0.096238192        -0.29497247         
 Si18    +0.25082114         -1.2117994          -0.026935695        
 Si19    +0.89645904         +0.78596659         -0.49527684         
 Si20    +0.46303369         -0.038433028        -0.058591379        
 Si21    -0.047581855        +1.1762194          -0.30245279         
 Si22    -1.9145607          -1.3316844          +2.7839211          
 Si23    +0.30899357         +0.26544738         +1.5349612          
 Si24    +0.4903994          -1.3532825          +1.8080551          
 Si25    +0.35362829         -0.48942503         -0.77924469         
 Si26    -0.3965331          -0.50458694         -1.0573609          
 Si27    -0.30917405         -0.12347947         -0.56781687         
 Si28    +0.16008863         +0.49944394         -0.25603551         
 Si29    -0.099995567        +0.62522568         -0.47967898         
 Si30    +0.013752712        +0.046776768        +0.072370806        
 Si31    -0.32986566         -0.33149035         -0.37156099         
 Si32    -0.39335129         -1.0684986          -0.44370859         
 Si33    -0.6537764          -0.10778277         -0.30944371         
 Si34    +0.44366924         +0.88554866         +1.3128515          
 Si35    +0.63978432         +0.74776095         +1.5445389          
 Si36    +0.7731172          +0.64590103         +1.7638782          
 C1      +2.0374893          +0.87473355         -1.0676286          
 C2      -0.23315084         +1.1453384          +0.38709561         
 C3      +1.853094           +2.1803523          -1.012571           
 C4      -0.90326457         -0.072528398        +0.58436801         
 C5      +0.26235525         -0.89544266         +0.62738856         
 C6      -1.0794757          -1.509325           +0.98110666         
 C7      +2.1385249          +0.58882516         -0.70523487         
 C8      -0.13163218         +0.93632351         +0.76154153         
 C9      +2.0986285          +2.2140698          -0.78906488         
 C10     -1.4599244          -0.48653906         -1.090656           
 C11     -0.20836428         -1.122652           -0.79536849         
 C12     -1.4787351          -2.0656097          -0.57390604         
 C13     +2.3377026          +1.2629227          -0.84729494         
 C14     +0.012039273        +0.014314247        +0.29749876         
 C15     -0.21868487         +1.1985782          -0.019972799        
 C16     -0.83326011         -0.50081424         +0.34521988         
 C17     -0.037065768        +0.20654317         +0.38572542         
 C18     +0.41502874         -1.1244441          +0.58777288         
 C19     +2.0831742          +1.2664497          -0.80321073         
 C20     -0.059834366        -0.38346036         +0.3167713          
 C21     -0.030691863        +1.1652871          +0.10489547         
 C22     -1.2035355          -0.57439454         -0.69852568         
 C23     -0.3902228          +0.042753372        -1.0494711          
 C24     -0.26091748         -1.0927515          -0.79509799         
 C25     -0.2256407          -0.17760963         -0.096618328        
 C26     +0.030319963        -0.40092748         +0.40127437         
 C27     -0.39096199         -0.4197096          +0.2272804          
 C28     +0.072128947        +0.40331664         +0.3971189          
 C29     +0.67451593         +0.22854732         +0.28681604         
 C30     +0.2133343          +0.28902847         -0.13037079         
 C31     +0.15527597         -0.28603943         +0.10922258         
 C32     -0.24294493         -0.1873147          +0.34973569         
 C33     +0.0267336          -0.13568602         +0.3729187          
 C34     -0.55639816         -0.080553145        -1.3764662          
 C35     -0.33111099         +0.39162197         -1.0265979          
 C36     +0.13503575         +0.22147225         -0.91238359         


 ><><><><><><><><><><><><><><><><><><><><><><><><><><><><><><><><><><><

 TOTAL-STRESS (KBAR)

 ><><><><><><><><><><><><><><><><><><><><><><><><><><><><><><><><><><><

 +5.120619              +42.088501             -45.859108             
 +42.088501             -122.499872            -10.245700             
 -45.859108             -10.245700             -125.938197            
 TOTAL-PRESSURE: -81.105817 KBAR


 ------------------------------------------------------------------------------------------------
 Energy              Potential           Kinetic             Temperature         Pressure (KBAR)     
 -347.23311          -347.25689          +0.023774217        +70.49103           -80.249019          
 ------------------------------------------------------------------------------------------------

output Pressure for check!
Virtual Pressure is -80.249019 Kbar 
Virial Term is -81.105817 Kbar 
Kenetic Term is +0.85679763 Kbar 


 ><><><><><><><><><><><><><><><><><><><><><><><><><><><><><><><><><><><

 MD STRESS (KBAR)

 ><><><><><><><><><><><><><><><><><><><><><><><><><><><><><><><><><><><

+5.8968793     +41.814918     -45.909449     
+41.814918     -121.47116     -10.266509     
-45.909449     -10.266509     -125.17277     



 -------------------------------------------
 STEP OF MOLECULAR DYNAMICS : 4
 -------------------------------------------
 second order charge density extrapolation !
 searching radius is (Bohr))              = +25.29
 searching radius unit is (Bohr))         = +1.8897261
+1561512
 DONE : INIT SCF Time : +5588.16 (SEC)


 LCAO ALGORITHM --------------- ION=+5    ELEC=+1  --------------------------------

 Density error is +0.00227329831848

 LCAO ALGORITHM --------------- ION=+5    ELEC=+2  --------------------------------

 Density error is +0.00137540985786

 LCAO ALGORITHM --------------- ION=+5    ELEC=+3  --------------------------------

 Density error is +0.00137657889596

 LCAO ALGORITHM --------------- ION=+5    ELEC=+4  --------------------------------

 Density error is +0.000324606471737

 LCAO ALGORITHM --------------- ION=+5    ELEC=+5  --------------------------------

 Density error is +0.000245005848264

 LCAO ALGORITHM --------------- ION=+5    ELEC=+6  --------------------------------

 Density error is +9.5014288053e-05

 LCAO ALGORITHM --------------- ION=+5    ELEC=+7  --------------------------------

 Density error is +3.98196555192e-05

 LCAO ALGORITHM --------------- ION=+5    ELEC=+8  --------------------------------

 Density error is +8.54187197183e-06

 LCAO ALGORITHM --------------- ION=+5    ELEC=+9  --------------------------------

 Density error is +5.00746789098e-06

 LCAO ALGORITHM --------------- ION=+5    ELEC=+10 --------------------------------

 Density error is +2.32389205059e-06

 LCAO ALGORITHM --------------- ION=+5    ELEC=+11 --------------------------------

 Density error is +7.70438460873e-07

 charge density convergence is achieved
 final etot is -9449.38585191 eV

 ><><><><><><><><><><><><><><><><><><><><><><><><><><><><><><><><><><><

    TOTAL-FORCE (eV/Angstrom)

 ><><><><><><><><><><><><><><><><><><><><><><><><><><><><><><><><><><><

 atom    x              y              z              
 Si1     +0.91890256         +0.22066351         -1.2585928          
 Si2     +0.097337528        +1.3178848          -0.73795047         
 Si3     +1.123724           +1.8478534          -1.0443079          
 Si4     -1.5400927          -0.56401848         +0.83196644         
 Si5     +0.088606819        -1.264683           +0.29232623         
 Si6     -2.1701174          -2.5441215          +0.75047423         
 Si7     +1.2079384          -0.16092659         -0.92082848         
 Si8     -0.18226764         +0.7662333          -0.62057217         
 Si9     +0.33334303         +1.7270121          -0.96937369         
 Si10    -1.6351805          -0.6157469          +2.3211512          
 Si11    +0.52394344         -0.9871223          +1.7484687          
 Si12    -1.802953           -2.2981502          +2.7717354          
 Si13    +0.5843769          +0.38139515         -1.3286177          
 Si14    -0.30631115         -0.25239148         -0.82089853         
 Si15    -0.013610262        +1.3121287          -0.69737476         
 Si16    -2.3316583          -1.1438025          +0.99176266         
 Si17    +0.4575758          +0.093196356        -0.31556185         
 Si18    +0.35740001         -1.2945254          -0.098358418        
 Si19    +1.0301308          +0.73680831         -0.42495998         
 Si20    +0.39666815         -0.086172876        -0.078186247        
 Si21    -0.0045568241       +1.1129276          -0.33785567         
 Si22    -1.9218591          -1.3105896          +2.815032           
 Si23    +0.18356262         +0.38455858         +1.5130436          
 Si24    +0.442389           -1.3297105          +1.8048037          
 Si25    +0.4151148          -0.50986971         -0.89975086         
 Si26    -0.31098077         -0.52624269         -1.0647179          
 Si27    -0.26725421         -0.020003723        -0.67627857         
 Si28    +0.13249968         +0.62962757         -0.25953505         
 Si29    -0.066968679        +0.75696006         -0.42865641         
 Si30    +0.016499605        +0.12457507         +0.18522448         
 Si31    -0.31708209         -0.43430099         -0.45130421         
 Si32    -0.4906944          -1.0828306          -0.35185693         
 Si33    -0.68072358         +0.0034155381       -0.26028415         
 Si34    +0.40466746         +0.84935667         +1.271391           
 Si35    +0.65464149         +0.76214135         +1.5627467          
 Si36    +0.89109562         +0.59408467         +1.6801431          
 C1      +2.0249837          +0.75026706         -0.9769765          
 C2      -0.35728401         +1.1767839          +0.37196921         
[...]
 C14     +0.21400126         -0.21333532         +0.53168109         
 C15     -0.13715224         +0.83103018         -0.31886733         
 C16     -0.74212186         -0.85954819         +0.067699381        
 C17     +0.22099847         +0.50209651         +0.51623006         
 C18     +0.2889644          -0.92955567         +1.1210706          
 C19     +2.1138856          +1.1697403          -0.75235274         
 C20     +0.099081878        -0.49250227         +0.70299286         
 C21     +0.068373597        +1.3150403          +0.0041961584       
 C22     -1.488963           -0.6128786          -0.65912626         
 C23     -0.56579775         +0.048610371        -0.80662319         
 C24     -0.83720927         -1.0193352          -1.0584912          
 C25     -0.4636891          -0.24783961         -0.091945327        
 C26     -0.3362187          -0.09900154         +0.62402348         
 C27     -0.8465953          -0.58463833         +0.37741236         
 C28     +0.038114941        +0.54072572         -0.19395609         
 C29     +0.64055643         +0.048994095        +0.035685498        
 C30     -0.051651594        +0.084211943        -0.039399188        
 C31     +0.18745814         -0.50315047         +0.52760206         
 C32     +0.070456374        -0.07812186         +0.38887274         
 C33     -0.15562163         -0.0045324125       +0.48143864         
 C34     -0.58767442         +0.060644336        -1.285958           
 C35     -0.23475324         +1.1045126          -1.2733482          
 C36     -0.1319626          +0.25229956         -0.69546326         


 ><><><><><><><><><><><><><><><><><><><><><><><><><><><><><><><><><><><

 TOTAL-STRESS (KBAR)

 ><><><><><><><><><><><><><><><><><><><><><><><><><><><><><><><><><><><

 +0.566595              +42.577307             -44.144321             
 +42.577307             -122.781758            -10.453169             
 -44.144321             -10.453169             -125.501321            
 TOTAL-PRESSURE: -82.572161 KBAR


 ------------------------------------------------------------------------------------------------
 Energy              Potential           Kinetic             Temperature         Pressure (KBAR)     
 -347.18405          -347.26022          +0.076169378        +225.84374          -79.827098          
 ------------------------------------------------------------------------------------------------

output Pressure for check!
Virtual Pressure is -79.827098 Kbar 
Virial Term is -82.572161 Kbar 
Kenetic Term is +2.7450639 Kbar 


 ><><><><><><><><><><><><><><><><><><><><><><><><><><><><><><><><><><><

 MD STRESS (KBAR)

 ><><><><><><><><><><><><><><><><><><><><><><><><><><><><><><><><><><><

+2.9118685     +42.464007     -43.83597      
+42.464007     -119.94389     -10.740309     
-43.83597      -10.740309     -122.44927     



 -------------------------------------------
 STEP OF MOLECULAR DYNAMICS : 10
 -------------------------------------------
 second order charge density extrapolation !
 searching radius is (Bohr))              = +25.29
 searching radius unit is (Bohr))         = +1.8897261
+1562118
 DONE : INIT SCF Time : +13180.5 (SEC)


 LCAO ALGORITHM --------------- ION=+11   ELEC=+1  --------------------------------

 Density error is +0.00342481071132

 LCAO ALGORITHM --------------- ION=+11   ELEC=+2  --------------------------------

 Density error is +0.00202976176035

 LCAO ALGORITHM --------------- ION=+11   ELEC=+3  --------------------------------

 Density error is +0.00185817526409

 LCAO ALGORITHM --------------- ION=+11   ELEC=+4  --------------------------------

 Density error is +0.000496601871769

 LCAO ALGORITHM --------------- ION=+11   ELEC=+5  --------------------------------

 Density error is +0.000403428601206

 LCAO ALGORITHM --------------- ION=+11   ELEC=+6  --------------------------------

 Density error is +0.000148516968871

 LCAO ALGORITHM --------------- ION=+11   ELEC=+7  --------------------------------

 Density error is +6.36060721963e-05

 LCAO ALGORITHM --------------- ION=+11   ELEC=+8  --------------------------------

 Density error is +1.15622691006e-05

 LCAO ALGORITHM --------------- ION=+11   ELEC=+9  --------------------------------

 Density error is +7.71228377845e-06

 LCAO ALGORITHM --------------- ION=+11   ELEC=+10 --------------------------------

 Density error is +3.22484290396e-06

 LCAO ALGORITHM --------------- ION=+11   ELEC=+11 --------------------------------

 Density error is +1.29177169993e-06

 LCAO ALGORITHM --------------- ION=+11   ELEC=+12 --------------------------------

 Density error is +3.88423650291e-07

 charge density convergence is achieved
 final etot is -9449.43316768 eV

 ><><><><><><><><><><><><><><><><><><><><><><><><><><><><><><><><><><><

    TOTAL-FORCE (eV/Angstrom)

 ><><><><><><><><><><><><><><><><><><><><><><><><><><><><><><><><><><><

 atom    x              y              z              
 Si1     +0.6826238          -0.089893277        -1.2704466          
 Si2     -0.37357592         +1.2947367          -0.87964431         
 Si3     +1.2546376          +1.8570127          -0.83096824         
 Si4     -0.90691113         -0.05906927         +0.54646788         
 Si5     +0.34773835         -1.0452666          +0.060369657        
 Si6     -1.7214939          -2.5608789          +0.31051453         
 Si7     +1.1680825          -0.016536526        -1.1632064          
 Si8     +0.15468556         +0.65369852         -0.60501992         
 Si9     +0.47185442         +1.5391518          -1.1036308          
 Si10    -0.70799516         -0.29510823         +1.8332966          
 Si11    +0.92558289         -0.87617472         +1.740606           
 Si12    -2.2202603          -2.5622932          +2.9474341          
 Si13    +0.92841873         +0.057476246        -1.682903           
 Si14    -0.25400118         -0.32860011         -1.3322651          
 Si15    +0.22907057         +1.1878616          -0.33425518         
 Si16    -2.0401077          -1.0607302          +0.8082516          
 Si17    +0.36481515         +0.43354168         -0.18024009         
 Si18    +0.49060822         -1.1926634          -0.40352506         
 Si19    +1.3805211          +0.83447452         -0.65045592         
 Si20    +0.26064211         -0.41098041         -0.15993583         
 Si21    -0.073956423        +0.77904625         -0.2930224          
 Si22    -1.6224145          -1.2322398          +2.6883267          
 Si23    +0.041531184        +0.3552486          +1.2080717          
 Si24    +0.16923344         -1.4486212          +1.7443906          
 Si25    +0.46102346         -0.81772665         -0.98496182         
 Si26    -0.053792723        -0.61164834         -1.0852369          
 Si27    +0.0027898897       -0.47162724         -0.62800803         
 Si28    -0.18507865         +0.63628758         -0.080620724        
 Si29    -0.1412484          +0.81213046         -0.35053879         
 Si30    -0.09872107         +0.20206703         +0.15051485         
 Si31    +0.020130003        -0.34526342         -0.53572224         
 Si32    -0.54186985         -1.0497696          -0.55165843         
 Si33    -0.87190656         -0.3247347          -0.37186215         
 Si34    +0.37782375         +1.0422019          +1.2966892          
 Si35    +0.88975433         +0.49683698         +1.6119226          
 Si36    +0.61811853         +0.6922334          +1.6271755          
 C1      +1.9221336          +0.5215602          -1.0272152          
 C2      -0.001642757        +1.2683325          +0.78112294         
 C3      +1.2555751          +1.6782329          -0.97793882         
 C4      -1.292668           +0.28894166         +0.81859577         
 C5      +0.068348343        -1.0388401          +0.79972893         
 C6      -0.98952767         -1.2380551          +1.4116289          
 C7      +2.4933879          +1.0411843          -0.9370318          
 C8      -0.18485593         +0.86575284         +0.86177028         
 C9      +0.9361585          +1.7402255          -0.6121286          
 C10     -1.548661           -0.015296688        -1.0861995          
 C11     -0.28366613         -1.0870858          -0.77994883         
 C12     -0.99868904         -1.8752422          -0.60598651         
 C13     +2.2996015          +1.2407667          -0.40219875         
 C14     +0.30795953         -0.42307118         +0.74316449         
 C15     -0.14463419         +0.96550993         -0.20136841         
 C16     -0.85026722         -0.98615948         +0.21430816         
 C17     +0.30590634         +0.69943191         +0.37850938         
 C18     +0.29288311         -0.90580101         +1.0966197          
 C19     +2.154957           +1.1897477          -0.63486479         
 C20     +0.053495889        -0.68625057         +0.63680455         
 C21     -0.0029935944       +1.3379921          -0.013569           
 C22     -1.3887738          -0.65979645         -0.59304201         
 C23     -0.58821413         +0.12801095         -0.72385937         
 C24     -0.79388447         -0.92011681         -0.93303682         
 C25     -0.55521018         -0.44568003         -0.095587849        
 C26     -0.55298704         -0.1177321          +0.75211446         
 C27     -0.70900193         -0.74822543         +0.35815236         
 C28     -0.16629199         +0.68701515         -0.36943969         
 C29     +0.75699861         +0.15919627         +0.095737151        
 C30     -0.13520182         +0.32423453         +0.05245976         
 C31     +0.24582355         -0.57411017         +0.40613798         
 C32     -0.16916246         +0.13315771         +0.42803168         
 C33     -0.043212306        -0.063720987        +0.47951117         
 C34     -0.59552651         +0.29166586         -1.4299919          
 C35     -0.44002697         +0.97798184         -1.3068924          
 C36     -0.084481864        +0.17206328         -0.68000092         


 ><><><><><><><><><><><><><><><><><><><><><><><><><><><><><><><><><><><

 TOTAL-STRESS (KBAR)

 ><><><><><><><><><><><><><><><><><><><><><><><><><><><><><><><><><><><

 -1.953599              +41.426913             -43.569722             
 +41.426913             -121.786447            -10.410203             
 -43.569722             -10.410203             -124.999945            
 TOTAL-PRESSURE: -82.913330 KBAR


 ------------------------------------------------------------------------------------------------
 Energy              Potential           Kinetic             Temperature         Pressure (KBAR)     
 -347.15527          -347.26014          +0.10486484         +310.92636          -79.134112          
 ------------------------------------------------------------------------------------------------

output Pressure for check!
Virtual Pressure is -79.134112 Kbar 
Virial Term is -82.91333 Kbar 
Kenetic Term is +3.779218 Kbar 


 ><><><><><><><><><><><><><><><><><><><><><><><><><><><><><><><><><><><

 MD STRESS (KBAR)

 ><><><><><><><><><><><><><><><><><><><><><><><><><><><><><><><><><><><

+1.6828501     +41.639133     -43.915608     
+41.639133     -117.67218     -10.785722     
-43.915608     -10.785722     -121.413       




 --------------------------------------------
 !FINAL_ETOT_IS -9449.433167677396 eV
 --------------------------------------------






  |CLASS_NAME---------|NAME---------------|TIME(Sec)-----|CALLS----|AVG------|PER%-------
                       total               +14497         27        +5.4e+02  +1e+02    %
   Driver              driver_line         +14497         1         +1.4e+04  +1e+02    %
   PW_Basis            setup_struc_factor  +1.2719        11        +0.12     +0.0088   %
   ORB_control         read_orb_first      +0.17662       1         +0.18     +0.0012   %
   LCAO_Orbitals       Read_Orbitals       +0.17661       1         +0.18     +0.0012   %
   NOrbital_Lm         extra_uniform       +0.10376       16        +0.0065   +0.00072  %
   ORB_control         set_orb_tables      +7.6199        1         +7.6      +0.053    %
   ORB_gen_tables      gen_tables          +7.6199        1         +7.6      +0.053    %
   ORB_table_phi       init_Table          +6.0124        1         +6        +0.041    %
   ORB_table_phi       cal_ST_Phi12_R      +5.9826        558       +0.011    +0.041    %
   ORB_table_beta      init_Table_Beta     +1.4102        1         +1.4      +0.0097   %
   ORB_table_beta      VNL_PhiBeta_R       +1.4037        168       +0.0084   +0.0097   %
   ppcell_vl           init_vloc           +0.27004       1         +0.27     +0.0019   %
   Run_MD              md_line             +14489         1         +1.4e+04  +1e+02    %
   Langevin            setup               +2037.7        1         +2e+03    +14       %
   MD_func             force_stress        +14488         11        +1.3e+03  +1e+02    %
   ESolver_KS_LCAO     Run                 +13481         11        +1.2e+03  +93       %
   ESolver_KS_LCAO     beforescf           +26.348        11        +2.4      +0.18     %
   ESolver_KS_LCAO     beforesolver        +9.3197        11        +0.85     +0.064    %
   ESolver_KS_LCAO     set_matrix_grid     +5.7314        11        +0.52     +0.04     %
   Grid_Technique      init                +3.344         11        +0.3      +0.023    %
   Grid_BigCell        grid_expansion_index+0.91807       22        +0.042    +0.0063   %
   Record_adj          for_2d              +2.0189        11        +0.18     +0.014    %
   Grid_Driver         Find_atom           +17.65         715176    +2.5e-05  +0.12     %
   Charge              atomic_rho          +14.699        21        +0.7      +0.1      %
   PW_Basis            recip2real          +3.3601        780       +0.0043   +0.023    %
   PW_Basis            gathers_scatterp    +1.595         780       +0.002    +0.011    %
   Potential           init_pot            +1.0761        11        +0.098    +0.0074   %
   Potential           update_from_charge  +13.073        143       +0.091    +0.09     %
   Potential           cal_v_eff           +13.013        143       +0.091    +0.09     %
   H_Hartree_pw        v_hartree           +1.5376        143       +0.011    +0.011    %
   PW_Basis            real2recip          +4.4231        1188      +0.0037   +0.031    %
   PW_Basis            gatherp_scatters    +1.8169        1188      +0.0015   +0.013    %
   PotXC               cal_v_eff           +11.378        143       +0.08     +0.078    %
   XC_Functional       v_xc                +11.312        143       +0.079    +0.078    %
   HSolverLCAO         solve               +13429         132       +1e+02    +93       %
   HamiltLCAO          updateHk            +4789.5        4752      +1        +33       %
   OperatorLCAO        init                +4151.3        9504      +0.44     +29       %
   Veff                contributeHk        +4148.1        4752      +0.87     +29       %
   Gint_interface      cal_gint            +6423.4        275       +23       +44       %
   Gint_interface      cal_gint_vlocal     +3193          132       +24       +22       %
   Gint_k              folding_vl_k        +955.05        4752      +0.2      +6.6      %
   Gint_k              Distri              +653.27        4752      +0.14     +4.5      %
   Overlap             contributeHR        +4.3494        11        +0.4      +0.03     %
   LCAO_gen_fixedH     calculate_S_no      +4.3494        11        +0.4      +0.03     %
   Ekinetic<OperatorLCAO>contributeHR        +4.3979        11        +0.4      +0.03     %
   Nonlocal<OperatorLCAO>contributeHR        +44.108        11        +4        +0.3      %
   LCAO_gen_fixedH     build_Nonlocal_mu_new+140.6         22        +6.4      +0.97     %
   ORB_gen_tables      snap_psibeta_half   +3.2227        1170645   +2.8e-06  +0.022    %
   OperatorLCAO        folding_fixed       +585.39        4752      +0.12     +4        %
   LCAO_nnr            folding_fixedH      +576.62        4752      +0.12     +4        %
   HSolverLCAO         hamiltSolvePsiK     +2129.6        4752      +0.45     +15       %
   DiagoElpa           elpa_solve          +2111          4752      +0.44     +15       %
   ElecStateLCAO       psiToRho            +6509.9        132       +49       +45       %
   elecstate           cal_dm              +301.13        143       +2.1      +2.1      %
   psiMulPsiMpi        pdgemm              +294.37        5148      +0.057    +2        %
    Local_Orbital_wfc  wfc_2d_to_grid      +38.19         4752      +0.008    +0.26     %
   LCAO_Charge         cal_dk_k            +3472.2        132       +26       +24       %
   Record_adj          for_grid            +0.67223       132       +0.0051   +0.0046   %
   Gint_interface      cal_gint_rho        +2694.5        132       +20       +19       %
   Charge              mix_rho             +1.8747        121       +0.015    +0.013    %
   Force_Stress_LCAO   getForceStress      +1007.6        11        +92       +7        %
   Forces              cal_force_loc       +1.0069        11        +0.092    +0.0069   %
   Forces              cal_force_ew        +0.96615       11        +0.088    +0.0067   %
   Forces              cal_force_scc       +8.2546        11        +0.75     +0.057    %
   Stress_Func         stress_loc          +6.9623        11        +0.63     +0.048    %
   Stress_Func         stress_ewa          +0.43168       11        +0.039    +0.003    %
   Stress_Func         stress_gga          +0.5181        11        +0.047    +0.0036   %
   Force_LCAO_k        ftable_k            +989.41        11        +90       +6.8      %
   Force_LCAO_k        allocate_k          +126.06        11        +11       +0.87     %
   Force_LCAO_k        cal_foverlap_k      +36.381        11        +3.3      +0.25     %
   Force_LCAO_k        cal_edm_2d          +35.442        11        +3.2      +0.24     %
   Local_Orbital_Chargecal_dm_R            +12.036        22        +0.55     +0.083    %
   Force_LCAO_k        cal_ftvnl_dphi_k    +0.30679       11        +0.028    +0.0021   %
   Force_LCAO_k        cal_fvl_dphi_k      +535.86        11        +49       +3.7      %
   Gint_interface      cal_gint_force      +535.86        11        +49       +3.7      %
   Force_LCAO_k        cal_fvnl_dbeta_k_new+252.48        11        +23       +1.7      %
 ----------------------------------------------------------------------------------------

 CLASS_NAME---------|NAME---------------|MEMORY(MB)--------
                                         +2.761e+04
 ORB_table_phi       Jl(x)               +138.2         
 allocate_pvpR       pvpR_reduced        +85.21         
 LocalOrbital_Charge Density_Matrix      +85.21         
 stress_lo           dSR                 +71.51         
 force_lo            dS                  +35.75         
 force_lo            dTVNL               +35.75         
 Force_LCAO_k        dm2d                +11.92         
 ORB_table_phi       Table_SR&TR         +10.58         
 Grid_Meshcell       index2normal        +8.308         
 Grid_Meshcell       index2ucell         +8.308         
 Charge_Mixing       Rrho                +7.031         
 Charge_Mixing       dRrho               +6.152         
 Charge_Mixing       drho                +6.152         
 LocalOrbital_Coef   wfc_k_grid          +4.181         
 init_meshball       meshball_pos        +3.422         
 atoms_on_grid       which_atom          +2.559         
 atoms_on_grid       which_bigcell       +2.559         
 atoms_on_grid       which_unitcell      +2.559         
 ORB_table_beta      Table_NR            +2.045         
 PW_Basis            struc_fac           +1.402         
 ----------------------------------------------------------

 Start  Time  : Mon May 22 14:16:29 2023
 Finish Time  : Mon May 22 18:18:07 2023
 Total  Time  : 4 h 1 mins 38 secs 
