                                                                                     
                             WELCOME TO ABACUS v3.0                                  
                                                                                     
               'Atomic-orbital Based Ab-initio Computation at UStc'                  
                                                                                     
                     Website: http://abacus.ustc.edu.cn/                             
                                                                                     
    Version: Parallel, in development
    Processor Number is 16
    Start Time is Mon May 22 14:16:31 2023
                                                                                     
 ------------------------------------------------------------------------------------

 READING GENERAL INFORMATION
                           global_out_dir = OUT.ABACUS/
                           global_in_card = INPUT
                               pseudo_dir = 
                              orbital_dir = 
                                    DRANK = 1
                                    DSIZE = 16
                                   DCOLOR = 1
                                    GRANK = 1
                                    GSIZE = 1
 The esolver type has been set to : ksdft_lcao




 >>>>>>>>>>>>>>>>>>>>>>>>>>>>>>>>>>>>>>>>>>>>>>>>>>>>>>>>>>>>>>>>>>>>>>
 |                                                                    |
 | Reading atom information in unitcell:                              |
 | From the input file and the structure file we know the number of   |
 | different elments in this unitcell, then we list the detail        |
 | information for each element, especially the zeta and polar atomic |
 | orbital number for each element. The total atom number is counted. |
 | We calculate the nearest atom distance for each atom and show the  |
 | Cartesian and Direct coordinates for each atom. We list the file   |
 | address for atomic orbitals. The volume and the lattice vectors    |
 | in real and reciprocal space is also shown.                        |
 |                                                                    |
 <<<<<<<<<<<<<<<<<<<<<<<<<<<<<<<<<<<<<<<<<<<<<<<<<<<<<<<<<<<<<<<<<<<<<<




 READING UNITCELL INFORMATION
                                    ntype = 2
                 atom label for species 1 = Si
                 atom label for species 2 = C
                  lattice constant (Bohr) = 1.88973
              lattice constant (Angstrom) = 1

 READING ATOM TYPE 1
                               atom label = Si
                      L=0, number of zeta = 3
                      L=1, number of zeta = 3
                      L=2, number of zeta = 2
             number of atom for this type = 36
                      start magnetization = FALSE
                      start magnetization = FALSE
                      start magnetization = FALSE
                      start magnetization = FALSE
                      start magnetization = FALSE
                      start magnetization = FALSE
                      start magnetization = FALSE
                      start magnetization = FALSE
                      start magnetization = FALSE
                      start magnetization = FALSE
                      start magnetization = FALSE
                      start magnetization = FALSE
                      start magnetization = FALSE
                      start magnetization = FALSE
                      start magnetization = FALSE
                      start magnetization = FALSE
                      start magnetization = FALSE
                      start magnetization = FALSE
                      start magnetization = FALSE
                      start magnetization = FALSE
                      start magnetization = FALSE
                      start magnetization = FALSE
                      start magnetization = FALSE
                      start magnetization = FALSE
                      start magnetization = FALSE
                      start magnetization = FALSE
                      start magnetization = FALSE
                      start magnetization = FALSE
                      start magnetization = FALSE
                      start magnetization = FALSE
                      start magnetization = FALSE
                      start magnetization = FALSE
                      start magnetization = FALSE
                      start magnetization = FALSE
                      start magnetization = FALSE
                      start magnetization = FALSE

 READING ATOM TYPE 2
                               atom label = C
                      L=0, number of zeta = 3
                      L=1, number of zeta = 3
                      L=2, number of zeta = 2
             number of atom for this type = 36
                      start magnetization = FALSE
                      start magnetization = FALSE
                      start magnetization = FALSE
                      start magnetization = FALSE
                      start magnetization = FALSE
                      start magnetization = FALSE
                      start magnetization = FALSE
                      start magnetization = FALSE
                      start magnetization = FALSE
                      start magnetization = FALSE
                      start magnetization = FALSE
                      start magnetization = FALSE
                      start magnetization = FALSE
                      start magnetization = FALSE
                      start magnetization = FALSE
                      start magnetization = FALSE
                      start magnetization = FALSE
                      start magnetization = FALSE
                      start magnetization = FALSE
                      start magnetization = FALSE
                      start magnetization = FALSE
                      start magnetization = FALSE
                      start magnetization = FALSE
                      start magnetization = FALSE
                      start magnetization = FALSE
                      start magnetization = FALSE
                      start magnetization = FALSE
                      start magnetization = FALSE
                      start magnetization = FALSE
                      start magnetization = FALSE
                      start magnetization = FALSE
                      start magnetization = FALSE
                      start magnetization = FALSE
                      start magnetization = FALSE
                      start magnetization = FALSE
                      start magnetization = FALSE

                        TOTAL ATOM NUMBER = 72

 CARTESIAN COORDINATES ( UNIT = 1.88973 Bohr ).
         atom                   x                   y                   z                 mag                  vx                  vy                  vz
     tauc_Si1    -0.0252942544478       1.80625939358       2.50450262896                   0                   0                   0                   0
     tauc_Si2       3.02278253172       7.13067306519       2.50713089877                   0                   0                   0                   0
     tauc_Si3       -3.1061802158       7.10212210567       2.41715086995                   0                   0                   0                   0
     tauc_Si4       4.51750477338       6.26823336887       5.03037721912                   0                   0                   0                   0
     tauc_Si5          1.45864754      0.930522016872       5.05168044891                   0                   0                   0                   0
     tauc_Si6       7.60640912929      0.949317519909       5.12770490664                   0                   0                   0                   0
     tauc_Si7     -0.100964264142        1.8320220149       7.55737751095                   0                   0                   0                   0
     tauc_Si8        2.9424035675       7.15491615063       7.53303515489                   0                   0                   0                   0
     tauc_Si9      -3.18445619392       7.16415056614       7.46352611194                   0                   0                   0                   0
    tauc_Si10       4.70987593042       6.12806789582      0.127891814222                   0                   0                   0                   0
    tauc_Si11       1.66884528679      0.810241366257       0.12349482389                   0                   0                   0                   0
    tauc_Si12       7.79755878891      0.818992751499      0.198105617799                   0                   0                   0                   0
    tauc_Si13      -1.58484781942        4.4367225557       2.46750778306                   0                   0                   0                   0
    tauc_Si14       1.48364961587       4.47161805353        2.5054068189                   0                   0                   0                   0
    tauc_Si15    -0.0457073667945       7.11816169518       2.46073016114                   0                   0                   0                   0
    tauc_Si16       6.06559480206       3.60922204138        5.0986061309                   0                   0                   0                   0
    tauc_Si17       2.98218009991       3.59624623036       5.04967181632                   0                   0                   0                   0
    tauc_Si18       4.52947704218      0.942081296647       5.07828218529                   0                   0                   0                   0
    tauc_Si19      -1.65198691862       4.48559268648       7.46075419112                   0                   0                   0                   0
    tauc_Si20       1.43205776419       4.50391056439       7.53830400169                   0                   0                   0                   0
    tauc_Si21     -0.110524811734       7.14905033643       7.48251841909                   0                   0                   0                   0
    tauc_Si22       6.25319462408       3.47958381278      0.173073475501                   0                   0                   0                   0
    tauc_Si23       3.18807787989        3.4678628122      0.119807902529                   0                   0                   0                   0
    tauc_Si24       4.73329397893      0.808399391378      0.154284566212                   0                   0                   0                   0
    tauc_Si25       3.03667072382         1.797690536       2.53198005233                   0                   0                   0                   0
    tauc_Si26       6.09356866106       1.79794584461       2.57694092281                   0                   0                   0                   0
    tauc_Si27       4.54816414329       4.46499540098       2.54783641826                   0                   0                   0                   0
    tauc_Si28       1.45718624842       6.25558431479       4.99841202914                   0                   0                   0                   0
    tauc_Si29      -1.60174538239       6.25420386636       4.94723407959                   0                   0                   0                   0
    tauc_Si30    -0.0755135690447       3.59599283956       5.00167755946                   0                   0                   0                   0
    tauc_Si31       2.96221517717       1.84036280065       7.58276665454                   0                   0                   0                   0
    tauc_Si32       6.05843495115       1.85673019141       7.61578062428                   0                   0                   0                   0
    tauc_Si33        4.4837553755       4.50070966142       7.57844883265                   0                   0                   0                   0
    tauc_Si34       1.64084336054       6.12551173738     0.0740016459112                   0                   0                   0                   0
    tauc_Si35      -1.42486744242       6.11701124193     0.0487457889831                   0                   0                   0                   0
    tauc_Si36      0.120398710751       3.45412720126     0.0641274576651                   0                   0                   0                   0
      tauc_C1    -0.0661598462123       1.80139769096        4.3875362648                   0                   0                   0                   0
      tauc_C2       2.99534262118       7.14249894263       4.40186853824                   0                   0                   0                   0
      tauc_C3      -3.13007911615       7.12820136497       4.31885285264                   0                   0                   0                   0
      tauc_C4        4.5065448893       6.26204349404       6.93766380722                   0                   0                   0                   0
      tauc_C5       1.43552799527      0.943044400148       6.94491621217                   0                   0                   0                   0
      tauc_C6       7.57457306392      0.963907059156       7.02983369913                   0                   0                   0                   0
      tauc_C7     -0.133280925695       1.86453522391        9.4280866686                   0                   0                   0                   0
      tauc_C8       2.91410914133       7.16248169429       9.41780997685                   0                   0                   0                   0
      tauc_C9      -3.20759772221       7.15974167654       9.34252230695                   0                   0                   0                   0
     tauc_C10       4.55862003896       6.23001543058       1.91453976344                   0                   0                   0                   0
     tauc_C11       1.50539192684      0.906141575056       1.89219578393                   0                   0                   0                   0
     tauc_C12        7.6566466338       0.93023305868       1.99870214231                   0                   0                   0                   0
     tauc_C13      -1.60375304223       4.45403403683       4.34803362236                   0                   0                   0                   0
     tauc_C14       1.47210590799       4.45738373913       4.39802015655                   0                   0                   0                   0
     tauc_C15    -0.0691487657411       7.12849454749       4.35195094649                   0                   0                   0                   0
     tauc_C16       6.03818001211       3.61648399208       6.98158570266                   0                   0                   0                   0
     tauc_C17       2.96148993327       3.62026063604       6.93192042764                   0                   0                   0                   0
     tauc_C18       4.53086084838      0.966405645277       6.98141871207                   0                   0                   0                   0
     tauc_C19      -1.66452947427       4.50644923847       9.39083737179                   0                   0                   0                   0
     tauc_C20       1.40820748112       4.50801288702       9.41186656255                   0                   0                   0                   0
     tauc_C21      -0.14156056664       7.18848297406       9.37105324874                   0                   0                   0                   0
     tauc_C22       6.09736359559       3.57247681628        1.9450680531                   0                   0                   0                   0
     tauc_C23       3.04019309323       3.56091501186       1.90893999698                   0                   0                   0                   0
     tauc_C24       4.57019907504      0.901437704823       1.92699468954                   0                   0                   0                   0
     tauc_C25       3.00135883407       1.83543042824       4.42806349829                   0                   0                   0                   0
     tauc_C26       6.07669251989       1.83056990953       4.46895350301                   0                   0                   0                   0
     tauc_C27       4.54720943377       4.47120251788       4.43582720372                   0                   0                   0                   0
     tauc_C28       1.44689344309       6.26496478235       6.89432658764                   0                   0                   0                   0
     tauc_C29      -1.64596004304       6.24368858287       6.85162700687                   0                   0                   0                   0
     tauc_C30     -0.100606306142       3.59854425039       6.89486797091                   0                   0                   0                   0
     tauc_C31       2.93146466633        1.8538219031       9.47022216055                   0                   0                   0                   0
     tauc_C32       6.00505410165       1.87935109896        9.5075026972                   0                   0                   0                   0
     tauc_C33       4.47527421578        4.5338942439       9.47054451538                   0                   0                   0                   0
     tauc_C34       1.49199687688       6.21357248922       1.86037207504                   0                   0                   0                   0
     tauc_C35      -1.57073738292       6.21015428584       1.83961667047                   0                   0                   0                   0
     tauc_C36    -0.0136283873465       3.56678533565       1.87205331602                   0                   0                   0                   0


 READING ORBITAL FILE NAMES FOR LCAO
 orbital file: Si_gga_9au_100Ry_3s3p2d.orb
 orbital file: C_gga_9au_100Ry_3s3p2d.orb

                          Volume (Bohr^3) = 4894.61193824
                             Volume (A^3) = 725.305790626

 Lattice vectors: (Cartesian coordinate: in unit of a_0)
        +8.9508878971                  +0                  +0
        -4.5155955244      +8.13669662912                  +0
      -0.258521378894     +0.170597749096      +9.95880942247
 Reciprocal vectors: (Cartesian coordinate: in unit of 2 pi/a_0)
      +0.111720760163    +0.0620012994918    +0.0018380633726
                   +0     +0.122899998068   -0.00210531823082
                   +0                  -0     +0.100413609457




 >>>>>>>>>>>>>>>>>>>>>>>>>>>>>>>>>>>>>>>>>>>>>>>>>>>>>>>>>>>>>>>>>>>>>>
 |                                                                    |
 | Reading pseudopotentials files:                                    |
 | The pseudopotential file is in UPF format. The 'NC' indicates that |
 | the type of pseudopotential is 'norm conserving'. Functional of    |
 | exchange and correlation is decided by 4 given parameters in UPF   |
 | file.  We also read in the 'core correction' if there exists.      |
 | Also we can read the valence electrons number and the maximal      |
 | angular momentum used in this pseudopotential. We also read in the |
 | trail wave function, trail atomic density and local-pseudopotential|
 | on logrithmic grid. The non-local pseudopotential projector is also|
 | read in if there is any.                                           |
 |                                                                    |
 <<<<<<<<<<<<<<<<<<<<<<<<<<<<<<<<<<<<<<<<<<<<<<<<<<<<<<<<<<<<<<<<<<<<<<




                PAO radial cut off (Bohr) = 15

 Read in pseudopotential file is Si_ONCV_PBE-1.0.upf
                     pseudopotential type = NC
          exchange-correlation functional = PBE
                 nonlocal core correction = 0
                        valence electrons = 4
                                     lmax = 1
                           number of zeta = 0
                     number of projectors = 4
                           L of projector = 0
                           L of projector = 0
                           L of projector = 1
                           L of projector = 1
                PAO radial cut off (Bohr) = 15

 Read in pseudopotential file is C_ONCV_PBE-1.0.upf
                     pseudopotential type = NC
          exchange-correlation functional = PBE
                 nonlocal core correction = 0
                        valence electrons = 4
                                     lmax = 1
                           number of zeta = 0
                     number of projectors = 4
                           L of projector = 0
                           L of projector = 0
                           L of projector = 1
                           L of projector = 1
     initial pseudo atomic orbital number = 0
                                   NLOCAL = 1584




 >>>>>>>>>>>>>>>>>>>>>>>>>>>>>>>>>>>>>>>>>>>>>>>>>>>>>>>>>>>>>>>>>>>>>>
 |                                                                    |
 | Setup plane waves of charge/potential:                             |
 | Use the energy cutoff and the lattice vectors to generate the      |
 | dimensions of FFT grid. The number of FFT grid on each processor   |
 | is 'nrxx'. The number of plane wave basis in reciprocal space is   |
 | different for charege/potential and wave functions. We also set    |
 | the 'sticks' for the parallel of FFT. The number of plane waves    |
 | is 'npw' in each processor.                                        |
 <<<<<<<<<<<<<<<<<<<<<<<<<<<<<<<<<<<<<<<<<<<<<<<<<<<<<<<<<<<<<<<<<<<<<<





 SETUP THE PLANE WAVE BASIS
 energy cutoff for charge/potential (unit:Ry) = 400
          [fft grid for charge/potential] = 108, 120, 120
                      [fft grid division] = 2, 2, 2
      [big fft grid for charge/potential] = 54, 60, 60
                                     nbxx = 12960
                                     nrxx = 103680

 SETUP PLANE WAVES FOR CHARGE/POTENTIAL
                    number of plane waves = 661103
                         number of sticks = 8267

 PARALLEL PW FOR CHARGE/POTENTIAL
     PROC   COLUMNS(POT)             PW
        1            517          41321
        2            517          41321
        3            517          41320
        4            517          41320
        5            517          41320
        6            517          41320
        7            517          41322
        8            517          41319
        9            517          41319
       10            517          41318
       11            517          41318
       12            516          41317
       13            516          41317
       14            516          41317
       15            516          41317
       16            516          41317
 --------------- sum -------------------
       16           8267         661103
                            number of |g| = 40170
                                  max |g| = 36.1820602963
                                  min |g| = 0.046670089516

 SETUP THE ELECTRONS NUMBER
            electron number of element Si = 4
      total electron number of element Si = 144
             electron number of element C = 4
       total electron number of element C = 144
            AUTOSET number of electrons:  = 288
 DONE : SETUP UNITCELL Time : 0.118420528335 (SEC)





 >>>>>>>>>>>>>>>>>>>>>>>>>>>>>>>>>>>>>>>>>>>>>>>>>>>>>>>>>>>>>>>>>>>>>>
 |                                                                    |
 | Setup K-points                                                     |
 | We setup the k-points according to input parameters.               |
 | The reduced k-points are set according to symmetry operations.     |
 | We treat the spin as another set of k-points.                      |
 |                                                                    |
 <<<<<<<<<<<<<<<<<<<<<<<<<<<<<<<<<<<<<<<<<<<<<<<<<<<<<<<<<<<<<<<<<<<<<<





 SETUP K-POINTS
                                    nspin = 1
                   Input type of k points = Monkhorst-Pack(Gamma)
                                   nkstot = 64
                               nkstot_ibz = 36
      IBZ             DirectX             DirectY             DirectZ              Weight    ibz2bz
        1                   0                   0                   0            0.015625         0
        2                0.75                   0                   0             0.03125         1
        3                 0.5                   0                   0            0.015625         2
        4                   0                0.75                   0             0.03125         4
        5                0.75                0.75                   0             0.03125         5
        6                 0.5                0.75                   0             0.03125         6
        7                0.25                0.75                   0             0.03125         7
        8                   0                 0.5                   0            0.015625         8
        9                0.75                 0.5                   0             0.03125         9
       10                 0.5                 0.5                   0            0.015625        10
       11                   0                   0                0.75             0.03125        16
       12                0.75                   0                0.75             0.03125        17
       13                 0.5                   0                0.75             0.03125        18
       14                0.25                   0                0.75             0.03125        19
       15                   0                0.75                0.75             0.03125        20
       16                0.75                0.75                0.75             0.03125        21
       17                 0.5                0.75                0.75             0.03125        22
       18                0.25                0.75                0.75             0.03125        23
       19                   0                 0.5                0.75             0.03125        24
       20                0.75                 0.5                0.75             0.03125        25
       21                 0.5                 0.5                0.75             0.03125        26
       22                0.25                 0.5                0.75             0.03125        27
       23                   0                0.25                0.75             0.03125        28
       24                0.75                0.25                0.75             0.03125        29
       25                 0.5                0.25                0.75             0.03125        30
       26                0.25                0.25                0.75             0.03125        31
       27                   0                   0                 0.5            0.015625        32
       28                0.75                   0                 0.5             0.03125        33
       29                 0.5                   0                 0.5            0.015625        34
       30                   0                0.75                 0.5             0.03125        36
       31                0.75                0.75                 0.5             0.03125        37
       32                 0.5                0.75                 0.5             0.03125        38
       33                0.25                0.75                 0.5             0.03125        39
       34                   0                 0.5                 0.5            0.015625        40
       35                0.75                 0.5                 0.5             0.03125        41
       36                 0.5                 0.5                 0.5            0.015625        42
                               nkstot now = 36

  KPOINTS            DIRECT_X            DIRECT_Y            DIRECT_Z              WEIGHT
        1                   0                   0                   0            0.015625
        2                0.75                   0                   0             0.03125
        3                 0.5                   0                   0            0.015625
        4                   0                0.75                   0             0.03125
        5                0.75                0.75                   0             0.03125
        6                 0.5                0.75                   0             0.03125
        7                0.25                0.75                   0             0.03125
        8                   0                 0.5                   0            0.015625
        9                0.75                 0.5                   0             0.03125
       10                 0.5                 0.5                   0            0.015625
       11                   0                   0                0.75             0.03125
       12                0.75                   0                0.75             0.03125
       13                 0.5                   0                0.75             0.03125
       14                0.25                   0                0.75             0.03125
       15                   0                0.75                0.75             0.03125
       16                0.75                0.75                0.75             0.03125
       17                 0.5                0.75                0.75             0.03125
       18                0.25                0.75                0.75             0.03125
       19                   0                 0.5                0.75             0.03125
       20                0.75                 0.5                0.75             0.03125
       21                 0.5                 0.5                0.75             0.03125
       22                0.25                 0.5                0.75             0.03125
       23                   0                0.25                0.75             0.03125
       24                0.75                0.25                0.75             0.03125
       25                 0.5                0.25                0.75             0.03125
       26                0.25                0.25                0.75             0.03125
       27                   0                   0                 0.5            0.015625
       28                0.75                   0                 0.5             0.03125
       29                 0.5                   0                 0.5            0.015625
       30                   0                0.75                 0.5             0.03125
       31                0.75                0.75                 0.5             0.03125
       32                 0.5                0.75                 0.5             0.03125
       33                0.25                0.75                 0.5             0.03125
       34                   0                 0.5                 0.5            0.015625
       35                0.75                 0.5                 0.5             0.03125
       36                 0.5                 0.5                 0.5            0.015625

           k-point number in this process = 36
       minimum distributed K point number = 36

  KPOINTS         CARTESIAN_X         CARTESIAN_Y         CARTESIAN_Z              WEIGHT
        1                   0                   0                   0             0.03125
        2     0.0837905701224     0.0465009746188    0.00137854752945              0.0625
        3     0.0558603800816     0.0310006497459   0.000919031686302             0.03125
        4                   0     0.0921749985511   -0.00157898867311              0.0625
        5     0.0837905701224       0.13867597317  -0.000200441143658              0.0625
        6     0.0558603800816      0.123175648297   -0.00065995698681              0.0625
        7     0.0279301900408      0.107675323424   -0.00111947282996              0.0625
        8                   0     0.0614499990341   -0.00105265911541             0.03125
        9     0.0837905701224      0.107950973653   0.000325888414046              0.0625
       10     0.0558603800816       0.09245064878  -0.000133627429106             0.03125
       11                   0                   0     0.0753102070924              0.0625
       12     0.0837905701224     0.0465009746188     0.0766887546218              0.0625
       13     0.0558603800816     0.0310006497459     0.0762292387787              0.0625
       14     0.0279301900408     0.0155003248729     0.0757697229355              0.0625
       15                   0     0.0921749985511     0.0737312184193              0.0625
       16     0.0837905701224       0.13867597317     0.0751097659487              0.0625
       17     0.0558603800816      0.123175648297     0.0746502501056              0.0625
       18     0.0279301900408      0.107675323424     0.0741907342624              0.0625
       19                   0     0.0614499990341      0.074257547977              0.0625
       20     0.0837905701224      0.107950973653     0.0756360955064              0.0625
       21     0.0558603800816       0.09245064878     0.0751765796633              0.0625
       22     0.0279301900408      0.076950323907     0.0747170638201              0.0625
       23                   0      0.030724999517     0.0747838775347              0.0625
       24     0.0837905701224     0.0772259741359     0.0761624250641              0.0625
       25     0.0558603800816     0.0617256492629      0.075702909221              0.0625
       26     0.0279301900408       0.04622532439     0.0752433933778              0.0625
       27                   0                   0     0.0502068047283             0.03125
       28     0.0837905701224     0.0465009746188     0.0515853522577              0.0625
       29     0.0558603800816     0.0310006497459     0.0511258364146             0.03125
       30                   0     0.0921749985511     0.0486278160551              0.0625
       31     0.0837905701224       0.13867597317     0.0500063635846              0.0625
       32     0.0558603800816      0.123175648297     0.0495468477414              0.0625
       33     0.0279301900408      0.107675323424     0.0490873318983              0.0625
       34                   0     0.0614499990341     0.0491541456128             0.03125
       35     0.0837905701224      0.107950973653     0.0505326931423              0.0625
       36     0.0558603800816       0.09245064878     0.0500731772991             0.03125

  KPOINTS            DIRECT_X            DIRECT_Y            DIRECT_Z              WEIGHT
        1                   0                   0                   0             0.03125
        2                0.75                   0                   0              0.0625
        3                 0.5                   0                   0             0.03125
        4                   0                0.75                   0              0.0625
        5                0.75                0.75                   0              0.0625
        6                 0.5                0.75                   0              0.0625
        7                0.25                0.75                   0              0.0625
        8                   0                 0.5                   0             0.03125
        9                0.75                 0.5                   0              0.0625
       10                 0.5                 0.5                   0             0.03125
       11                   0                   0                0.75              0.0625
       12                0.75                   0                0.75              0.0625
       13                 0.5                   0                0.75              0.0625
       14                0.25                   0                0.75              0.0625
       15                   0                0.75                0.75              0.0625
       16                0.75                0.75                0.75              0.0625
       17                 0.5                0.75                0.75              0.0625
       18                0.25                0.75                0.75              0.0625
       19                   0                 0.5                0.75              0.0625
       20                0.75                 0.5                0.75              0.0625
       21                 0.5                 0.5                0.75              0.0625
       22                0.25                 0.5                0.75              0.0625
       23                   0                0.25                0.75              0.0625
       24                0.75                0.25                0.75              0.0625
       25                 0.5                0.25                0.75              0.0625
       26                0.25                0.25                0.75              0.0625
       27                   0                   0                 0.5             0.03125
       28                0.75                   0                 0.5              0.0625
       29                 0.5                   0                 0.5             0.03125
       30                   0                0.75                 0.5              0.0625
       31                0.75                0.75                 0.5              0.0625
       32                 0.5                0.75                 0.5              0.0625
       33                0.25                0.75                 0.5              0.0625
       34                   0                 0.5                 0.5             0.03125
       35                0.75                 0.5                 0.5              0.0625
       36                 0.5                 0.5                 0.5             0.03125
 DONE : INIT K-POINTS Time : 0.128875027756 (SEC)

                           occupied bands = 144
                                   NLOCAL = 1584
                                   NBANDS = 173
                                   NBANDS = 173




 >>>>>>>>>>>>>>>>>>>>>>>>>>>>>>>>>>>>>>>>>>>>>>>>>>>>>>>>>>>>>>>>>>>>>>
 |                                                                    |
 | Setup numerical orbitals:                                          |
 | This part setup: numerical atomic orbitals, non-local projectors   |
 | and neutral potential (1D). The atomic orbitals information        |
 | including the radius, angular momentum and zeta number.            |
 | The neutral potential is the sum of local part of pseudopotential  |
 | and potential given by atomic charge, they will cancel out beyond  |
 | a certain radius cutoff, because the Z/r character.                |
 |                                                                    |
 <<<<<<<<<<<<<<<<<<<<<<<<<<<<<<<<<<<<<<<<<<<<<<<<<<<<<<<<<<<<<<<<<<<<<<





 SETUP ONE DIMENSIONAL ORBITALS/POTENTIAL
                        delta k  (1/Bohr) = 0.01
                        delta r    (Bohr) = 0.01
                        dr_uniform (Bohr) = 0.001
                        rmax       (Bohr) = 30
                                    kmesh = 1005
      ORBITAL  L  N      nr      dr    RCUT  CHECK_UNIT    NEW_UNIT
            1  0  0     901    0.01       9           1           1
            2  0  1     901    0.01       9           1           1
            3  0  2     901    0.01       9           1           1
            4  1  0     901    0.01       9           1           1
            5  1  1     901    0.01       9           1           1
            6  1  2     901    0.01       9           1           1
            7  2  0     901    0.01       9           1           1
            8  2  1     901    0.01       9           1           1
      ORBITAL  L  N      nr      dr    RCUT  CHECK_UNIT    NEW_UNIT
            1  0  0     901    0.01       9           1           1
            2  0  1     901    0.01       9           1           1
            3  0  2     901    0.01       9           1           1
            4  1  0     901    0.01       9           1           1
            5  1  1     901    0.01       9           1           1
            6  1  2     901    0.01       9           1           1
            7  2  0     901    0.01       9           1           1
            8  2  1     901    0.01       9           1           1
 SET NONLOCAL PSEUDOPOTENTIAL PROJECTORS
 SET NONLOCAL PSEUDOPOTENTIAL PROJECTORS
 max number of nonlocal projetors among all species is 4

 SETUP THE TWO-CENTER INTEGRATION TABLES

 SETUP THE DIVISION OF H/S MATRIX
 divide the H&S matrix using 2D block algorithms.
                                     nb2d = 64
 parameter nb2d is too large: nb2d = 64
 reset nb2d to value 1, this set would make the program keep working but maybe get slower during diagonalization.
                  trace_loc_row dimension = 1584
                  trace_loc_col dimension = 1584
                                     nloc = 156816

 -------------------------------------------
 STEP OF MOLECULAR DYNAMICS : 0
 -------------------------------------------
              searching radius is (Bohr)) = 25.3
         searching radius unit is (Bohr)) = 1.89
1684652
                                 init_chg = atomic
 DONE : INIT SCF Time : 10.2135 (SEC)


 LCAO ALGORITHM --------------- ION=   1  ELEC=   1--------------------------------

 Density error is 0.2795246387

 LCAO ALGORITHM --------------- ION=   1  ELEC=   2--------------------------------

 Density error is 0.149660180324

 LCAO ALGORITHM --------------- ION=   1  ELEC=   3--------------------------------

 Density error is 0.0354858405146

 LCAO ALGORITHM --------------- ION=   1  ELEC=   4--------------------------------

 Density error is 0.0584453345619

 LCAO ALGORITHM --------------- ION=   1  ELEC=   5--------------------------------

 Density error is 0.0111208782321

 LCAO ALGORITHM --------------- ION=   1  ELEC=   6--------------------------------

 Density error is 0.00548761402276

 LCAO ALGORITHM --------------- ION=   1  ELEC=   7--------------------------------

 Density error is 0.00187984934875

 LCAO ALGORITHM --------------- ION=   1  ELEC=   8--------------------------------

 Density error is 0.00121639421404

 LCAO ALGORITHM --------------- ION=   1  ELEC=   9--------------------------------

 Density error is 0.000876180056248

 LCAO ALGORITHM --------------- ION=   1  ELEC=  10--------------------------------

 Density error is 0.000320188815996

 LCAO ALGORITHM --------------- ION=   1  ELEC=  11--------------------------------

 Density error is 0.000132771990964

 LCAO ALGORITHM --------------- ION=   1  ELEC=  12--------------------------------

 Density error is 6.89026589825e-05

 LCAO ALGORITHM --------------- ION=   1  ELEC=  13--------------------------------

 Density error is 2.19457716175e-05

 LCAO ALGORITHM --------------- ION=   1  ELEC=  14--------------------------------

 Density error is 1.06910209134e-05

 LCAO ALGORITHM --------------- ION=   1  ELEC=  15--------------------------------

 Density error is 4.08000676494e-06

 LCAO ALGORITHM --------------- ION=   1  ELEC=  16--------------------------------

 Density error is 1.73164601778e-06

 LCAO ALGORITHM --------------- ION=   1  ELEC=  17--------------------------------

 Density error is 7.46213839894e-07

 charge density convergence is achieved
 final etot is -9444.20746215 eV

 ><><><><><><><><><><><><><><><><><><><><><><><><><><><><><><><><><><><

    TOTAL-FORCE (eV/Angstrom)

 ><><><><><><><><><><><><><><><><><><><><><><><><><><><><><><><><><><><

     atom              x              y              z
      Si1          +5.5347343          +2.5461968          +2.6286829
      Si2         -0.43953301         +0.93374442         +0.90146654
      Si3          +5.4054313          +4.4687909          +3.1327752
      Si4          -2.8856957          -1.5208537         +0.70187927
      Si5         +0.60337379         -0.90258958         -0.57783267
      Si6          -3.7747044          -2.9259081         +0.10250015
      Si7          +5.2835986          +2.7245213          +1.7408053
      Si8          +0.1082271          +1.1479831         +0.65074525
      Si9          +5.4703593          +3.9590868          +2.3703253
     Si10          -3.3871816         -0.84562912          -1.9557002
     Si11         -0.20950715         -0.96577502           -2.628626
     Si12          -3.9218947          -2.7379633          -1.7678632
     Si13          +5.7992251          +3.1843905          +2.6698497
     Si14         +0.43376607         -0.61380495         +0.54290901
     Si15         +0.27013674          +1.0824934         +0.71302117
     Si16           -3.369138           -1.890762         +0.26579616
     Si17         +0.45123173         +0.13877594        -0.092050617
     Si18          -0.1707567          -1.0655482          -0.3558431
     Si19          +6.2616511          +3.7215268          +3.3087365
     Si20         -0.30460728         -0.19159379        -0.071099903
     Si21         +0.14482009          +1.4026101         +0.48700115
     Si22          -3.2832218          -1.4087045          -1.9816839
     Si23         -0.19764657         +0.26905996          -1.9503677
     Si24         -0.65108433          -1.0693449          -2.9270377
     Si25         -0.17395812         -0.56283143         +0.56055443
     Si26         -0.49307983         -0.63397952         +0.67868466
     Si27         -0.35990942         -0.54816574         +0.72144404
     Si28        +0.035623794         +0.20882248       -0.0050842957
     Si29         +0.40451772         +0.37034745         +0.32637449
     Si30         +0.70726699        -0.033987672         +0.19866459
     Si31         +0.16304873         -0.46459672         -0.19420505
     Si32          -1.2137857         -0.79162576         +0.34622809
     Si33         -0.44021738          -0.1721122         +0.33694454
     Si34         -0.40797121         +0.45901761           -2.258523
     Si35         +0.65141402         +0.84004651          -2.2516083
     Si36         +0.39638207         +0.93299148          -1.3323756
       C1          +3.4740182          +1.7434521         -0.69101128
       C2           -0.408994          +1.0890229         +0.56180564
       C3          +3.3223942          +3.0446727         -0.22617419
       C4          -5.3421652          -2.3903434          -2.6074061
       C5         +0.33942663          -1.1106645         -0.20688796
       C6          -5.2752152          -4.6693677          -2.9291439
       C7          +3.3616457          +1.0313566         -0.92177506
       C8        -0.045449142          +1.3048578         +0.84472085
       C9          +3.2559103            +3.09467         +0.15124185
      C10          -4.8658499           -2.747182          -0.7281285
      C11         +0.55792384           -1.334249          +2.0152353
      C12          -5.7115198          -4.9333054          -1.3721185
      C13          +3.4543444           +1.995544         -0.63945639
      C14         -0.21881727         +0.39438833         -0.22304591
      C15         +0.31314521          +1.3711869         +0.54285267
      C16          -6.2454667          -3.6437839          -2.6784215
      C17         +0.21536578         -0.20382557         +0.11698547
      C18         -0.50658822          -1.3567121           -0.468003
      C19          +3.1412653          +1.6744644          -1.1520878
      C20           -0.178757       +0.0064639451         +0.08110498
      C21         +0.13252902         +0.91944896         +0.79643712
      C22          -5.3491986          -3.3989943         -0.51325147
      C23        +0.076827086          +0.2753325          +1.5873163
      C24         +0.27306508          -1.2823505          +1.9405172
      C25        -0.059366732         -0.83994867          -0.1335873
      C26         -0.65803763         -0.66454623        +0.071379751
      C27         -0.94442846        -0.057140746          +0.1371204
      C28          -0.3209983         +0.43956299         -0.35032898
      C29         +0.68383141          +1.0575939         -0.20280804
      C30         +0.56749806         +0.30905554        +0.072856106
      C31         +0.25647524          -0.1041405         -0.43928076
      C32         -0.45337254         -0.66698749         -0.10870898
      C33         -0.75248105         -0.66487096        -0.085466655
      C34         +0.50783424         +0.81048991          +1.7397243
      C35         +0.73496242          +0.4001977          +1.5702878
      C36         +0.22732802        +0.062022175          +1.4120194


 ><><><><><><><><><><><><><><><><><><><><><><><><><><><><><><><><><><><

 TOTAL-STRESS (KBAR)

 ><><><><><><><><><><><><><><><><><><><><><><><><><><><><><><><><><><><

             +282.024766             +77.660295             +38.056243
              +77.660295             +17.989688             -14.656348
              +38.056243             -14.656348            +167.744648
 TOTAL-PRESSURE: +155.919701 KBAR


 ------------------------------------------------------------------------------------------------
 Energy              Potential           Kinetic             Temperature         Pressure (KBAR)     
 -347.06473          -347.0681           +0.0033726584       +10                 +156.05485          
 ------------------------------------------------------------------------------------------------

output Pressure for check!
Virtual Pressure is +156.05485 Kbar 
Virial Term is +155.9197 Kbar 
Kenetic Term is +0.13515152 Kbar 


 ><><><><><><><><><><><><><><><><><><><><><><><><><><><><><><><><><><><

 MD STRESS (KBAR)

 ><><><><><><><><><><><><><><><><><><><><><><><><><><><><><><><><><><><

+282.14964     +77.636682     +38.057343     
+77.636682     +18.118225     -14.677249     
+38.057343     -14.677249     +167.89669     



 -------------------------------------------
 STEP OF MOLECULAR DYNAMICS : 1
 -------------------------------------------
 NEW-OLD atomic charge density approx. for the potential !
 searching radius is (Bohr))              = +25.29
 searching radius unit is (Bohr))         = +1.8897261
+1684652
 DONE : INIT SCF Time : +1867.74 (SEC)


 LCAO ALGORITHM --------------- ION=+2    ELEC=+1  --------------------------------

 Density error is +0.000688545358868

 LCAO ALGORITHM --------------- ION=+2    ELEC=+2  --------------------------------

 Density error is +0.000592887261403

 LCAO ALGORITHM --------------- ION=+2    ELEC=+3  --------------------------------

 Density error is +0.000555928736355

 LCAO ALGORITHM --------------- ION=+2    ELEC=+4  --------------------------------

 Density error is +0.000101996438708

 LCAO ALGORITHM --------------- ION=+2    ELEC=+5  --------------------------------

 Density error is +7.91682247339e-05

 LCAO ALGORITHM --------------- ION=+2    ELEC=+6  --------------------------------

 Density error is +3.2502061156e-05

 LCAO ALGORITHM --------------- ION=+2    ELEC=+7  --------------------------------

 Density error is +1.05100465067e-05

 LCAO ALGORITHM --------------- ION=+2    ELEC=+8  --------------------------------

 Density error is +3.58417768073e-06

 LCAO ALGORITHM --------------- ION=+2    ELEC=+9  --------------------------------

 Density error is +1.94782502164e-06

 LCAO ALGORITHM --------------- ION=+2    ELEC=+10 --------------------------------

 Density error is +5.89573828884e-07

 charge density convergence is achieved
 final etot is -9444.4643517 eV

 ><><><><><><><><><><><><><><><><><><><><><><><><><><><><><><><><><><><

    TOTAL-FORCE (eV/Angstrom)

 ><><><><><><><><><><><><><><><><><><><><><><><><><><><><><><><><><><><

 atom    x              y              z              
 Si1     +5.3562299          +2.4490595          +2.5338051          
 Si2     -0.44448838         +0.94225337         +0.89474773         
 Si3     +5.2657039          +4.3540331          +3.0724883          
 Si4     -2.8796886          -1.4559613          +0.67236573         
 Si5     +0.60658531         -0.90877284         -0.5855868          
 Si6     -3.7665204          -2.9205445          +0.085969403        
 Si7     +5.1587884          +2.6464846          +1.6870121          
 Si8     +0.076144754        +1.1327059          +0.64261738         
 Si9     +5.3469267          +3.8804322          +2.3290174          
 Si10    -3.3210994          -0.82986011         -1.9871755          
 Si11    -0.20353651         -0.9783582          -2.590772           
 Si12    -3.8686302          -2.6938895          -1.7871495          
 Si13    +5.6394635          +3.0866859          +2.598731           
 Si14    +0.43389746         -0.60752741         +0.52481347         
 Si15    +0.27309042         +1.1018334          +0.74300484         
 Si16    -3.2849348          -1.8339365          +0.1950771          
 Si17    +0.45516652         +0.11885365         -0.12373243         
 Si18    -0.17323656         -1.0757939          -0.36186233         
 Si19    +6.0732471          +3.5924994          +3.2326272          
 Si20    -0.31329628         -0.19159007         -0.057391799        
 Si21    +0.16708457         +1.4219938          +0.50483859         
 Si22    -3.288025           -1.4057283          -1.9496964          
 Si23    -0.20187484         +0.26203588         -1.9001438          
 Si24    -0.68104001         -1.0746316          -2.8721672          
 Si25    -0.15580835         -0.57083521         +0.57130098         
 Si26    -0.50232016         -0.6655807          +0.66844497         
 Si27    -0.36891143         -0.54852071         +0.724754           
 Si28    +0.055545011        +0.20337684         -0.0014890015       
 Si29    +0.41882964         +0.40143154         +0.31191809         
 Si30    +0.72845596         -0.031251215        +0.19223986         
 Si31    +0.14852119         -0.44617455         -0.21896543         
 Si32    -1.176245           -0.8166623          +0.3279013          
 Si33    -0.46258693         -0.15871804         +0.29742283         
 Si34    -0.41891102         +0.46608094         -2.1784584          
 Si35    +0.64161923         +0.84935886         -2.1852712          
 Si36    +0.38500784         +0.91685215         -1.3078217          
 C1      +3.4550262          +1.7284135          -0.65148913         
 C2      -0.39662265         +1.0723411          +0.58887494         
 C3      +3.2826003          +3.0208501          -0.19268142         
 C4      -5.2133364          -2.3339851          -2.5400786          
 C5      +0.3635468          -1.098882           -0.20980529         
 C6      -5.1607004          -4.569056           -2.8630131          
 C7      +3.2907685          +0.99146219         -0.87612069         
 C8      -0.019481897        +1.3118799          +0.81904259         
 C9      +3.1587385          +3.0512714          +0.1868296          
 C10     -4.7121152          -2.6316411          -0.67462123         
 C11     +0.54335514         -1.3274129          +1.960149           
 C12     -5.5155937          -4.8147697          -1.3004161          
 C13     +3.3427937          +1.9129763          -0.57596918         
 C14     -0.23282895         +0.38788862         -0.18030713         
 C15     +0.30086529         +1.37141            +0.53024119         
 C16     -6.041614           -3.4884692          -2.5696527          
 C17     +0.22991878         -0.21516599         +0.15670669         
 C18     -0.53214738         -1.3677174          -0.46870692         
 C19     +3.1329614          +1.6558206          -1.1436874          
 C20     -0.16640911         +0.025250026        +0.042674494        
 C21     +0.13791727         +0.92391251         +0.77918282         
 C22     -5.1609553          -3.2621889          -0.47521911         
 C23     +0.072986879        +0.26629081         +1.5398099          
 C24     +0.25609094         -1.2790107          +1.8954605          
 C25     -0.070684975        -0.81613463         -0.13039696         
 C26     -0.63591808         -0.65719178         +0.079958298        
 C27     -0.94343103         -0.089395758        +0.13358275         
 C28     -0.30684158         +0.42837957         -0.35507902         
 C29     +0.67014847         +1.0362328          -0.2208709          
 C30     +0.56750094         +0.32123714         +0.080823235        
 C31     +0.27576489         -0.10264133         -0.42147872         
 C32     -0.43653234         -0.66215456         -0.12935369         
 C33     -0.7284901          -0.62586517         -0.071371964        
 C34     +0.51654528         +0.77571972         +1.64853            
 C35     +0.73176696         +0.40118662         +1.5016862          
 C36     +0.22525344         +0.047525294        +1.4033531          


 ><><><><><><><><><><><><><><><><><><><><><><><><><><><><><><><><><><><

 TOTAL-STRESS (KBAR)

 ><><><><><><><><><><><><><><><><><><><><><><><><><><><><><><><><><><><

 +279.924421            +75.917509             +37.640909             
 +75.917509             +17.182980             -15.068486             
 +37.640909             -15.068486             +167.187055            
 TOTAL-PRESSURE: +154.764819 KBAR


 ------------------------------------------------------------------------------------------------
 Energy              Potential           Kinetic             Temperature         Pressure (KBAR)     
 -347.06693          -347.07754          +0.010606433        +31.448286          +155.18985          
 ------------------------------------------------------------------------------------------------

output Pressure for check!
Virtual Pressure is +155.18985 Kbar 
Virial Term is +154.76482 Kbar 
Kenetic Term is +0.42502837 Kbar 


 ><><><><><><><><><><><><><><><><><><><><><><><><><><><><><><><><><><><

 MD STRESS (KBAR)

 ><><><><><><><><><><><><><><><><><><><><><><><><><><><><><><><><><><><

+280.46826     +76.070728     +37.740349     
+76.070728     +17.645287     -15.040396     
+37.740349     -15.040396     +167.45599     



 -------------------------------------------
 STEP OF MOLECULAR DYNAMICS : 2
 -------------------------------------------
 first order charge density extrapolation !
 searching radius is (Bohr))              = +25.29
 searching radius unit is (Bohr))         = +1.8897261
+1683526
 DONE : INIT SCF Time : +2997.37 (SEC)


 LCAO ALGORITHM --------------- ION=+3    ELEC=+1  --------------------------------

 Density error is +0.00163266515071

 LCAO ALGORITHM --------------- ION=+3    ELEC=+2  --------------------------------

 Density error is +0.000934689366093

 LCAO ALGORITHM --------------- ION=+3    ELEC=+3  --------------------------------

 Density error is +0.000729397231063

 LCAO ALGORITHM --------------- ION=+3    ELEC=+4  --------------------------------

 Density error is +0.000197932829406

 LCAO ALGORITHM --------------- ION=+3    ELEC=+5  --------------------------------

 Density error is +0.000150891691677

 LCAO ALGORITHM --------------- ION=+3    ELEC=+6  --------------------------------

 Density error is +5.67163820711e-05

 LCAO ALGORITHM --------------- ION=+3    ELEC=+7  --------------------------------

 Density error is +2.33020989793e-05

 LCAO ALGORITHM --------------- ION=+3    ELEC=+8  --------------------------------

 Density error is +6.86044447639e-06

 LCAO ALGORITHM --------------- ION=+3    ELEC=+9  --------------------------------

 Density error is +2.40514069115e-06

 LCAO ALGORITHM --------------- ION=+3    ELEC=+10 --------------------------------

 Density error is +7.07044211315e-07

 charge density convergence is achieved
 final etot is -9444.81221072 eV

 ><><><><><><><><><><><><><><><><><><><><><><><><><><><><><><><><><><><

    TOTAL-FORCE (eV/Angstrom)

 ><><><><><><><><><><><><><><><><><><><><><><><><><><><><><><><><><><><

 atom    x              y              z              
 Si1     +5.1136139          +2.3664151          +2.5091221          
 Si2     -0.45157522         +0.93268152         +0.88396804         
 Si3     +5.1263628          +4.2697564          +2.9992896          
 Si4     -2.7823068          -1.3671371          +0.54024216         
 Si5     +0.58288856         -0.94432109         -0.54267973         
 Si6     -3.7242496          -2.8603273          -0.030802828        
 Si7     +4.9154097          +2.5023141          +1.5324395          
 Si8     +0.016153719        +1.0731491          +0.59915631         
 Si9     +5.037431           +3.6580858          +2.1940736          
 Si10    -3.2357589          -0.86107996         -1.925788           
 Si11    -0.25479866         -1.0153261          -2.5647553          
 Si12    -3.8531122          -2.6584774          -1.7249434          
 Si13    +5.444334           +2.9581107          +2.5147867          
 Si14    +0.34557371         -0.63254518         +0.49722509         
 Si15    +0.26158497         +1.0829365          +0.77195833         
 Si16    -3.323742           -1.8790278          +0.22631145         
 Si17    +0.44683504         +0.25453881         -0.16159018         
 Si18    -0.22996416         -1.1232813          -0.37367526         
 Si19    +5.7989124          +3.4266718          +3.1051961          
 Si20    -0.21830186         -0.22041734         -0.088893462        
 Si21    +0.19024171         +1.3838696          +0.5210676          
 Si22    -3.1162379          -1.2972026          -1.9906356          
 Si23    -0.16329714         +0.23484174         -1.942961           
 Si24    -0.70288529         -1.0943944          -2.8308888          
 Si25    -0.16249969         -0.68087648         +0.62036488         
 Si26    -0.45490166         -0.675329           +0.63823461         
 Si27    -0.32397392         -0.48026318         +0.69104598         
 Si28    +0.0083791014       +0.19599865         +0.045344102        
 Si29    +0.40663258         +0.38248953         +0.29386102         
 Si30    +0.67175516         -0.054720763        +0.18386834         
 Si31    +0.16134779         -0.43203409         -0.19271561         
 Si32    -1.2342024          -0.87660078         +0.31518531         
 Si33    -0.5589997          -0.14939709         +0.34355674         
 Si34    -0.47073429         +0.44412653         -2.2103967          
 Si35    +0.54649394         +0.8365646          -2.2527499          
 Si36    +0.32110822         +0.95199852         -1.3042765          
 C1      +3.3271503          +1.6904299          -0.61248191         
 C2      -0.29243404         +1.0798297          +0.60767453         
 C3      +3.1293077          +2.8968237          -0.075048713        
 C4      -4.8747957          -2.1306806          -2.3301787          
 C5      +0.37114701         -1.0045066          -0.24349334         
 C6      -4.8921368          -4.355452           -2.7149725          
 C7      +3.3059633          +0.94209379         -0.838258           
 C8      +0.020109285        +1.3712328          +0.81150009         
 C9      +3.156232           +2.9446921          +0.24302598         
 C10     -4.6111195          -2.5972318          -0.70956082         
 C11     +0.64429618         -1.3153637          +1.8945782          
 C12     -5.357075           -4.6758788          -1.2983801          
 C13     +3.3835586          +1.9364853          -0.60937919         
 C14     -0.14977971         +0.32975965         -0.22152169         
 C15     +0.30444896         +1.3955749          +0.45151673         
 C16     -5.6372283          -3.3166879          -2.4970923          
 C17     +0.155677           -0.28734549         +0.24709961         
 C18     -0.47953343         -1.2891169          -0.38545349         
 C19     +2.9823204          +1.6212443          -1.0187399          
 C20     -0.09691708         -0.039090273        +0.14446809         
 C21     +0.21601954         +0.98394728         +0.73552552         
 C22     -4.9781992          -3.1797992          -0.31692144         
 C23     +0.013278384        +0.36817977         +1.5080137          
 C24     +0.21765583         -1.2537564          +1.8836382          
 C25     -0.0005115467       -0.86409085         -0.17648325         
 C26     -0.54656432         -0.55159199         +0.098850283        
 C27     -0.9912188          -0.12823016         +0.14566682         
 C28     -0.37595635         +0.5451371          -0.35301511         
 C29     +0.69994531         +0.99702558         -0.2245782          
 C30     +0.56484645         +0.23328533         +0.056303048        
 C31     +0.31390716         +0.014323037        -0.48222334         
 C32     -0.47289825         -0.72290538         -0.18463383         
 C33     -0.81088995         -0.54720996         -0.1456313          
 C34     +0.55269239         +0.71275668         +1.6974688          
 C35     +0.73204139         +0.44856833         +1.5793811          
 C36     +0.34314394         +0.095758647        +1.4447911          


 ><><><><><><><><><><><><><><><><><><><><><><><><><><><><><><><><><><><

 TOTAL-STRESS (KBAR)

 ><><><><><><><><><><><><><><><><><><><><><><><><><><><><><><><><><><><

 +276.741415            +73.555646             +36.551706             
 +73.555646             +15.802563             -15.843141             
 +36.551706             -15.843141             +167.051581            
 TOTAL-PRESSURE: +153.198520 KBAR


 ------------------------------------------------------------------------------------------------
 Energy              Potential           Kinetic             Temperature         Pressure (KBAR)     
 -347.06737          -347.09032          +0.022950934        +68.04998           +154.11823          
 ------------------------------------------------------------------------------------------------

output Pressure for check!
Virtual Pressure is +154.11823 Kbar 
Virial Term is +153.19852 Kbar 
Kenetic Term is +0.91970583 Kbar 


 ><><><><><><><><><><><><><><><><><><><><><><><><><><><><><><><><><><><

 MD STRESS (KBAR)

 ><><><><><><><><><><><><><><><><><><><><><><><><><><><><><><><><><><><

+277.84882     +73.679387     +36.689303     
+73.679387     +16.617458     -15.900695     
+36.689303     -15.900695     +167.8884      



 -------------------------------------------
 STEP OF MOLECULAR DYNAMICS : 3
 -------------------------------------------
 second order charge density extrapolation !
 searching radius is (Bohr))              = +25.29
 searching radius unit is (Bohr))         = +1.8897261
+1684914
 DONE : INIT SCF Time : +4125.36 (SEC)


 LCAO ALGORITHM --------------- ION=+4    ELEC=+1  --------------------------------

 Density error is +0.00200684336884

 LCAO ALGORITHM --------------- ION=+4    ELEC=+2  --------------------------------

 Density error is +0.00129476857916

 LCAO ALGORITHM --------------- ION=+4    ELEC=+3  --------------------------------

 Density error is +0.00131898351768

 LCAO ALGORITHM --------------- ION=+4    ELEC=+4  --------------------------------

 Density error is +0.000338471335621

 LCAO ALGORITHM --------------- ION=+4    ELEC=+5  --------------------------------

 Density error is +0.000161868662083

 LCAO ALGORITHM --------------- ION=+4    ELEC=+6  --------------------------------

 Density error is +6.19302883999e-05

 LCAO ALGORITHM --------------- ION=+4    ELEC=+7  --------------------------------

 Density error is +3.05853939091e-05

 LCAO ALGORITHM --------------- ION=+4    ELEC=+8  --------------------------------

 Density error is +8.80619951063e-06

 LCAO ALGORITHM --------------- ION=+4    ELEC=+9  --------------------------------

 Density error is +3.89315978341e-06

 LCAO ALGORITHM --------------- ION=+4    ELEC=+10 --------------------------------

 Density error is +1.35541059442e-06

 LCAO ALGORITHM --------------- ION=+4    ELEC=+11 --------------------------------

 Density error is +5.46233542826e-07

 charge density convergence is achieved
 final etot is -9445.10467314 eV

 ><><><><><><><><><><><><><><><><><><><><><><><><><><><><><><><><><><><

    TOTAL-FORCE (eV/Angstrom)

 ><><><><><><><><><><><><><><><><><><><><><><><><><><><><><><><><><><><

 atom    x              y              z              
 Si1     +4.94481            +2.438645           +2.4190521          
 Si2     -0.54599167         +0.94125154         +0.815483           
 Si3     +4.8997862          +4.1496561          +2.8912586          
 Si4     -2.635644           -1.3180733          +0.44702301         
 Si5     +0.53312969         -1.0450959          -0.54978725         
 Si6     -3.6375111          -2.8520678          -0.051481518        
 Si7     +4.8302808          +2.3738861          +1.4888319          
 Si8     +0.071508884        +1.0067135          +0.51827836         
 Si9     +4.9537993          +3.5764545          +2.0751933          
 Si10    -3.1369515          -0.83072195         -1.9975926          
 Si11    -0.32073263         -0.96901341         -2.4926311          
 Si12    -3.737535           -2.5858147          -1.7215672          
 Si13    +5.3235594          +2.847332           +2.5420613          
 Si14    +0.24126524         -0.67164506         +0.40373421         
 Si15    +0.31629776         +1.1317522          +0.81577395         
 Si16    -3.4566425          -1.7790937          +0.24814516         
 Si17    +0.45677544         +0.23924893         -0.26516444         
 Si18    -0.26538956         -1.1032722          -0.46681151         
 Si19    +5.3420389          +3.1750855          +3.0301255          
 Si20    -0.16946206         -0.051614202        +0.046830049        
 Si21    +0.23694842         +1.3973152          +0.54778271         
 Si22    -3.1704433          -1.4185023          -1.9071967          
 Si23    -0.1798075          +0.32891178         -1.7487365          
 Si24    -0.68553861         -1.1125417          -2.6155509          
 Si25    -0.14441078         -0.581982           +0.57370987         
 Si26    -0.53168764         -0.61021973         +0.58765743         
 Si27    -0.40827676         -0.50625764         +0.69727619         
 Si28    -0.13310705         +0.17392048         +0.089296933        
 Si29    +0.33929921         +0.32062371         +0.17572432         
 Si30    +0.56330579         +0.041852613        +0.11717362         
 Si31    +0.051432616        -0.36706277         -0.11875117         
 Si32    -1.1431548          -0.95128497         +0.32398134         
 Si33    -0.53478955         -0.057122239        +0.42944365         
 Si34    -0.55108685         +0.41768515         -1.9831924          
 Si35    +0.49471778         +0.79554836         -2.1305254          
 Si36    +0.2917825          +0.93293759         -1.1602469          
 C1      +3.2274362          +1.6569631          -0.54561803         
 C2      -0.17315503         +1.1787682          +0.60751951         
 C3      +3.0630426          +2.7661398          +0.092308138        
 C4      -4.8492797          -2.0580309          -2.1929956          
 C5      +0.33855855         -0.95541249         -0.19509079         
 C6      -4.849847           -4.2518665          -2.5942291          
 C7      +3.2992168          +0.85376366         -0.75790244         
 C8      +0.12998218         +1.3901498          +0.83856364         
 C9      +3.0844079          +2.8552683          +0.41516548         
 C10     -4.3506755          -2.362216           -0.62952883         
 C11     +0.71821764         -1.4014977          +1.7004627          
 C12     -5.2305273          -4.683177           -1.3119204          
 C13     +3.504384           +2.0468055          -0.61282542         
 C14     -0.067397525        +0.21980446         -0.055006836        
 C15     +0.33572554         +1.3980038          +0.42926669         
 C16     -5.2647599          -3.0568447          -2.3403625          
 C17     +0.049444255        -0.33972062         +0.14776804         
 C18     -0.40028612         -1.330955           -0.34942108         
 C19     +3.0233803          +1.7707089          -1.1135335          
 C20     -0.053391518        -0.081657616        -0.035508804        
 C21     +0.14214749         +0.95840848         +0.61448461         
 C22     -4.8071502          -3.1148348          -0.3161803          
 C23     +0.0074548344       +0.2968034          +1.382982           
 C24     +0.31716239         -1.2845917          +1.7316164          
 C25     +0.11376772         -0.71768676         -0.04657756         
 C26     -0.6183502          -0.6603161          +0.062345595        
 C27     -0.90323195         -0.20161453         +0.21578101         
 C28     -0.30776385         +0.4218596          -0.27249579         
 C29     +0.66139567         +1.0649138          -0.12514569         
 C30     +0.64948133         +0.16130236         -0.067236162        
 C31     +0.35917971         -0.015526576        -0.59404581         
 C32     -0.59018732         -0.59134298         -0.17333953         
 C33     -0.81048243         -0.57248312         -0.28869406         
 C34     +0.63645043         +0.7062766          +1.5467592          
 C35     +0.62258269         +0.40124282         +1.3827552          
 C36     +0.4904922          +0.055157744        +1.3752791          


 ><><><><><><><><><><><><><><><><><><><><><><><><><><><><><><><><><><><

 TOTAL-STRESS (KBAR)

 ><><><><><><><><><><><><><><><><><><><><><><><><><><><><><><><><><><><

 +275.245933            +72.026252             +35.631626             
 +72.026252             +14.776588             -16.187305             
 +35.631626             -16.187305             +165.630271            
 TOTAL-PRESSURE: +151.884264 KBAR


 ------------------------------------------------------------------------------------------------
 Energy              Potential           Kinetic             Temperature         Pressure (KBAR)     
 -347.07386          -347.10107          +0.027213306        +80.688             +152.97477          
 ------------------------------------------------------------------------------------------------

output Pressure for check!
Virtual Pressure is +152.97477 Kbar 
Virial Term is +151.88426 Kbar 
Kenetic Term is +1.0905106 Kbar 


 ><><><><><><><><><><><><><><><><><><><><><><><><><><><><><><><><><><><

 MD STRESS (KBAR)

 ><><><><><><><><><><><><><><><><><><><><><><><><><><><><><><><><><><><

+276.20912     +71.843591     +35.655379     
+71.843591     +16.092312     -16.029195     
+35.655379     -16.029195     +166.62289     



 -------------------------------------------
 STEP OF MOLECULAR DYNAMICS : 4
 -------------------------------------------
 second order charge density extrapolation !
 searching radius is (Bohr))              = +25.29
 searching radius unit is (Bohr))         = +1.8897261
+1685176
 DONE : INIT SCF Time : +5358.54 (SEC)


 LCAO ALGORITHM --------------- ION=+5    ELEC=+1  --------------------------------

 Density error is +0.00257137146805

 LCAO ALGORITHM --------------- ION=+5    ELEC=+2  --------------------------------

 Density error is +0.00158224791438

 LCAO ALGORITHM --------------- ION=+5    ELEC=+3  --------------------------------

 Density error is +0.00147832182002

 LCAO ALGORITHM --------------- ION=+5    ELEC=+4  --------------------------------

 Density error is +0.00035644793744

 LCAO ALGORITHM --------------- ION=+5    ELEC=+5  --------------------------------

 Density error is +0.000227666843242

 LCAO ALGORITHM --------------- ION=+5    ELEC=+6  --------------------------------

 Density error is +0.000100929379034

 LCAO ALGORITHM --------------- ION=+5    ELEC=+7  --------------------------------

 Density error is +4.48993257259e-05

 LCAO ALGORITHM --------------- ION=+5    ELEC=+8  --------------------------------

 Density error is +7.71465985484e-06

 LCAO ALGORITHM --------------- ION=+5    ELEC=+9  --------------------------------

 Density error is +3.37242331494e-06

 LCAO ALGORITHM --------------- ION=+5    ELEC=+10 --------------------------------

 Density error is +1.26102575312e-06

 LCAO ALGORITHM --------------- ION=+5    ELEC=+11 --------------------------------

 Density error is +6.5551345696e-07

 charge density convergence is achieved
 final etot is -9445.36579698 eV

 ><><><><><><><><><><><><><><><><><><><><><><><><><><><><><><><><><><><

    TOTAL-FORCE (eV/Angstrom)

 ><><><><><><><><><><><><><><><><><><><><><><><><><><><><><><><><><><><

 atom    x              y              z              
 Si1     +4.717032           +2.2571013          +2.2885532          
 Si2     -0.35319127         +0.88959893         +0.88369086         
 Si3     +4.8559333          +4.1143949          +2.9072427          
 Si4     -2.528551           -1.2656485          +0.4513369          
 Si5     +0.52162769         -1.0814443          -0.53865314         
 Si6     -3.4171335          -2.8582439          -0.23705438         
 Si7     +4.6430177          +2.2794767          +1.495653           
 Si8     +0.18688804         +0.92145142         +0.5693456          
 Si9     +4.6724915          +3.4902842          +1.9854813          
 Si10    -3.1041076          -0.83468148         -1.9909408          
 Si11    -0.27679392         -0.93122228         -2.4713277          
 Si12    -3.8119023          -2.6205272          -1.6123241          
 Si13    +4.975939           +2.730268           +2.5187378          
 Si14    +0.28191602         -0.67597908         +0.57932579         
 Si15    +0.33427723         +1.1410516          +0.963869           
 Si16    -3.4880836          -1.6966236          +0.13089348         
 Si17    +0.41319771         +0.2277468          -0.30508628         
 Si18    -0.14394587         -1.1935004          -0.5516496          
 Si19    +5.2781796          +2.9778282          +2.9526342          
 Si20    -0.21564357         -0.098120932        +0.0011024533       
 Si21    +0.29696392         +1.3276693          +0.49234371         
 Si22    -3.1890311          -1.3981225          -1.7929717          
 Si23    -0.32063645         +0.45783847         -1.7579367          
 Si24    -0.74531307         -1.0880322          -2.6254503          
 Si25    -0.043782573        -0.60240906         +0.42996368         
 Si26    -0.44687218         -0.65095782         +0.57068867         
 Si27    -0.37210365         -0.39030844         +0.56847041         
 Si28    -0.14897319         +0.33523747         +0.071588112        
 Si29    +0.39406369         +0.47223821         +0.22718087         
 Si30    +0.57076803         +0.12749471         +0.2420674          
 Si31    +0.060118834        -0.47563476         -0.23849318         
 Si32    -1.26223            -0.99629428         +0.39164179         
 Si33    -0.60007153         +0.067663865        +0.44814631         
 Si34    -0.5943771          +0.38586639         -1.9092899          
 Si35    +0.52328608         +0.81449627         -2.0859454          
 Si36    +0.45721168         +0.8674936          -1.2298337          
 C1      +3.1641101          +1.4767173          -0.39652979         
 C2      -0.32502179         +1.2158789          +0.58650439         
 C3      +2.9856808          +2.7552754          +0.0079197647       
 C4      -4.7978853          -2.1055574          -2.0050438          
 C5      +0.49839989         -0.81860349         -0.2756225          
 C6      -4.764824           -3.9689475          -2.4469402          
 C7      +3.3244672          +0.9633068          -0.85615783         
[...]
 C15     +0.33470991         +0.98871535         +0.11690866         
 C16     -3.9829202          -2.7009232          -2.0857497          
 C17     +0.29574288         +0.013889341        +0.36997598         
 C18     -0.47428258         -1.1149735          +0.38295277         
 C19     +2.9288791          +1.5710775          -1.015135           
 C20     +0.095834348        -0.2592279          +0.43580114         
 C21     +0.20638086         +1.1769845          +0.39993398         
 C22     -4.0303143          -2.4616056          -0.17015139         
 C23     -0.29233083         +0.2518325          +1.6175964          
 C24     -0.45123848         -1.2120022          +0.70615642         
 C25     -0.19555316         -0.73333508         -0.0039743078       
 C26     -0.9825484          -0.25809265         +0.33086353         
 C27     -1.3602327          -0.40823058         +0.39815542         
 C28     -0.40489062         +0.52219982         -0.78017432         
 C29     +0.64098732         +0.73841314         -0.24895803         
 C30     +0.26259795         -0.038482313        +0.061186547        
 C31     +0.31231007         -0.31514092         -0.03429551         
 C32     -0.19571515         -0.39094054         -0.19496012         
 C33     -0.91334527         -0.31612666         -0.2218633          
 C34     +0.45363752         +0.7283692          +1.407065           
 C35     +0.66677126         +1.1395533          +0.51231709         
 C36     +0.16905787         +0.10395343         +1.5715772          


 ><><><><><><><><><><><><><><><><><><><><><><><><><><><><><><><><><><><

 TOTAL-STRESS (KBAR)

 ><><><><><><><><><><><><><><><><><><><><><><><><><><><><><><><><><><><

 +257.649543            +62.760880             +34.801249             
 +62.760880             +11.355317             -20.310700             
 +34.801249             -20.310700             +165.594531            
 TOTAL-PRESSURE: +144.866463 KBAR


 ------------------------------------------------------------------------------------------------
 Energy              Potential           Kinetic             Temperature         Pressure (KBAR)     
 -347.06904          -347.15263          +0.083588366        +247.84119          +148.21607          
 ------------------------------------------------------------------------------------------------

output Pressure for check!
Virtual Pressure is +148.21607 Kbar 
Virial Term is +144.86646 Kbar 
Kenetic Term is +3.3496113 Kbar 


 ><><><><><><><><><><><><><><><><><><><><><><><><><><><><><><><><><><><

 MD STRESS (KBAR)

 ><><><><><><><><><><><><><><><><><><><><><><><><><><><><><><><><><><><

+260.60776     +62.857522     +35.582264     
+62.857522     +14.612696     -20.3773       
+35.582264     -20.3773       +169.42777     



 -------------------------------------------
 STEP OF MOLECULAR DYNAMICS : 10
 -------------------------------------------
 second order charge density extrapolation !
 searching radius is (Bohr))              = +25.29
 searching radius unit is (Bohr))         = +1.8897261
+1684910
 DONE : INIT SCF Time : +13065.3 (SEC)


 LCAO ALGORITHM --------------- ION=+11   ELEC=+1  --------------------------------

 Density error is +0.00386219127088

 LCAO ALGORITHM --------------- ION=+11   ELEC=+2  --------------------------------

 Density error is +0.00235674242439

 LCAO ALGORITHM --------------- ION=+11   ELEC=+3  --------------------------------

 Density error is +0.00217556164697

 LCAO ALGORITHM --------------- ION=+11   ELEC=+4  --------------------------------

 Density error is +0.000567355910479

 LCAO ALGORITHM --------------- ION=+11   ELEC=+5  --------------------------------

 Density error is +0.000384994567721

 LCAO ALGORITHM --------------- ION=+11   ELEC=+6  --------------------------------

 Density error is +0.000143217623666

 LCAO ALGORITHM --------------- ION=+11   ELEC=+7  --------------------------------

 Density error is +6.17867657359e-05

 LCAO ALGORITHM --------------- ION=+11   ELEC=+8  --------------------------------

 Density error is +1.10717911603e-05

 LCAO ALGORITHM --------------- ION=+11   ELEC=+9  --------------------------------

 Density error is +7.48519301414e-06

 LCAO ALGORITHM --------------- ION=+11   ELEC=+10 --------------------------------

 Density error is +3.04334084727e-06

 LCAO ALGORITHM --------------- ION=+11   ELEC=+11 --------------------------------

 Density error is +9.31891210685e-07

 charge density convergence is achieved
 final etot is -9446.80147478 eV

 ><><><><><><><><><><><><><><><><><><><><><><><><><><><><><><><><><><><

    TOTAL-FORCE (eV/Angstrom)

 ><><><><><><><><><><><><><><><><><><><><><><><><><><><><><><><><><><><

 atom    x              y              z              
 Si1     +3.2566581          +1.0528529          +1.7695494          
 Si2     -0.84583689         +0.90770593         +0.72819269         
 Si3     +4.1768392          +3.5487762          +2.7688947          
 Si4     -1.7824432          -0.59787459         -0.059096792        
 Si5     +0.85277348         -0.87508046         -0.80253365         
 Si6     -2.8352454          -2.8717372          -0.89229872         
 Si7     +3.4847801          +1.6129032          +0.66580524         
 Si8     +0.51339654         +0.77606052         +0.42472389         
 Si9     +3.6870285          +2.6870484          +1.2749867          
 Si10    -2.1231095          -0.49627455         -2.4995418          
 Si11    +0.28001478         -0.80361727         -1.9226107          
 Si12    -4.1678438          -2.9010757          -1.0033894          
 Si13    +4.4652444          +1.787879           +1.7461943          
 Si14    +0.39100689         -0.68528141         +0.023813307        
 Si15    +0.7242615          +1.0180291          +1.3773391          
 Si16    -3.0307516          -1.5183952          -0.26268843         
 Si17    +0.28808572         +0.65778802         -0.16095103         
 Si18    +0.02902794         -1.1099475          -0.93484618         
 Si19    +4.7916489          +2.5141422          +2.2701947          
 Si20    -0.25613148         -0.43421156         -0.21897108         
 Si21    +0.25301172         +0.96440844         +0.44116091         
 Si22    -2.7973923          -1.3126995          -1.8024898          
 Si23    -0.50206566         +0.4289628          -2.2260979          
 Si24    -1.062482           -1.2257102          -2.0385527          
 Si25    +0.15486581         -0.94301045         +0.33859861         
 Si26    -0.23104903         -0.80557416         +0.52102437         
 Si27    -0.12649804         -0.94036942         +0.70611394         
 Si28    -0.49465454         +0.35677514         +0.25924421         
 Si29    +0.36151566         +0.59553545         +0.27377559         
 Si30    +0.47024024         +0.26897181         +0.2148791          
 Si31    +0.42804866         -0.35738716         -0.45327252         
 Si32    -1.3909432          -1.0474896          -0.032251027        
 Si33    -1.0101845          -0.38313322         +0.14192427         
 Si34    -0.50910785         +0.66018216         -1.5267061          
 Si35    +0.82746977         +0.53611803         -1.2236513          
 Si36    +0.20103806         +0.99690865         -1.1947123          
 C1      +2.8757628          +1.1011955          -0.38985628         
 C2      +0.11911847         +1.3384695          +1.0264104          
 C3      +2.2196275          +2.087391           +0.23576408         
 C4      -3.8851678          -0.801227           -1.152277           
 C5      +0.10909861         -1.0998864          +0.1431304          
 C6      -3.3111443          -2.8739518          -1.2447463          
 C7      +3.4303627          +1.3221002          -1.0610195          
 C8      +0.019756876        +1.322815           +0.86540468         
 C9      +1.7108483          +2.3124355          +0.58308718         
 C10     -3.3721924          -1.1581278          -0.26289474         
 C11     +0.55180654         -1.3578736          +1.1690255          
 C12     -3.062423           -3.4274522          -1.054547           
 C13     +3.1725717          +1.8057359          +0.16046701         
 C14     +0.30103417         -0.32765514         +0.60674867         
 C15     +0.32649997         +1.1316826          +0.26112369         
 C16     -3.9703493          -2.7809249          -1.8574534          
 C17     +0.39736584         +0.24163521         +0.22413594         
 C18     -0.45891708         -1.0782291          +0.36759222         
 C19     +2.9176796          +1.5675896          -0.86830928         
 C20     +0.049025419        -0.47439864         +0.37063806         
 C21     +0.12459656         +1.2094703          +0.36704025         
 C22     -3.7542609          -2.3817268          -0.0039717248       
 C23     -0.33898968         +0.31614461         +1.7942584          
 C24     -0.41426934         -1.0685079          +0.91743444         
 C25     -0.29895912         -0.96136515         -0.0037817393       
 C26     -1.2326228          -0.27099951         +0.4771437          
 C27     -1.185527           -0.59530702         +0.38111986         
 C28     -0.65650704         +0.67011629         -0.97071497         
 C29     +0.79823753         +0.85788564         -0.17326149         
 C30     +0.15090619         +0.2249692          +0.16800254         
 C31     +0.37954587         -0.40654158         -0.18527643         
 C32     -0.48499536         -0.12400357         -0.16564338         
 C33     -0.76820588         -0.37000902         -0.23265511         
 C34     +0.42168384         +0.97290081         +1.0105436          
 C35     +0.42496491         +0.99696203         +0.34254017         
 C36     +0.2228206          +0.016509318        +1.4630439          


 ><><><><><><><><><><><><><><><><><><><><><><><><><><><><><><><><><><><

 TOTAL-STRESS (KBAR)

 ><><><><><><><><><><><><><><><><><><><><><><><><><><><><><><><><><><><

 +252.192233            +59.234860             +35.146368             
 +59.234860             +11.986795             -21.027462             
 +35.146368             -21.027462             +166.074192            
 TOTAL-PRESSURE: +143.417740 KBAR


 ------------------------------------------------------------------------------------------------
 Energy              Potential           Kinetic             Temperature         Pressure (KBAR)     
 -347.05134          -347.16343          +0.11208996         +332.34899          +147.90949          
 ------------------------------------------------------------------------------------------------

output Pressure for check!
Virtual Pressure is +147.90949 Kbar 
Virial Term is +143.41774 Kbar 
Kenetic Term is +4.4917471 Kbar 


 ><><><><><><><><><><><><><><><><><><><><><><><><><><><><><><><><><><><

 MD STRESS (KBAR)

 ><><><><><><><><><><><><><><><><><><><><><><><><><><><><><><><><><><><

+256.59008     +59.82194      +35.212199     
+59.82194      +16.855776     -21.104528     
+35.212199     -21.104528     +170.28261     




 --------------------------------------------
 !FINAL_ETOT_IS -9446.801474775315 eV
 --------------------------------------------






  |CLASS_NAME---------|NAME---------------|TIME(Sec)-----|CALLS----|AVG------|PER%-------
                       total               +14293         27        +5.3e+02  +1e+02    %
   Driver              driver_line         +14293         1         +1.4e+04  +1e+02    %
   PW_Basis            setup_struc_factor  +1.1586        11        +0.11     +0.0081   %
   ORB_control         read_orb_first      +0.23139       1         +0.23     +0.0016   %
   LCAO_Orbitals       Read_Orbitals       +0.23139       1         +0.23     +0.0016   %
   NOrbital_Lm         extra_uniform       +0.12649       16        +0.0079   +0.00088  %
   Mathzone_Add1       Uni_Deriv_Phi       +0.11255       16        +0.007    +0.00079  %
   ORB_control         set_orb_tables      +7.0056        1         +7        +0.049    %
   ORB_gen_tables      gen_tables          +7.0056        1         +7        +0.049    %
   ORB_table_phi       init_Table          +5.1692        1         +5.2      +0.036    %
   ORB_table_phi       cal_ST_Phi12_R      +5.126         558       +0.0092   +0.036    %
   ORB_table_beta      init_Table_Beta     +1.3532        1         +1.4      +0.0095   %
   ORB_table_beta      VNL_PhiBeta_R       +1.3444        168       +0.008    +0.0094   %
   ppcell_vl           init_vloc           +0.25689       1         +0.26     +0.0018   %
   Run_MD              md_line             +14285         1         +1.4e+04  +1e+02    %
   Langevin            setup               +1857.6        1         +1.9e+03  +13       %
   MD_func             force_stress        +14285         11        +1.3e+03  +1e+02    %
   ESolver_KS_LCAO     Run                 +13196         11        +1.2e+03  +92       %
   ESolver_KS_LCAO     beforescf           +25.491        11        +2.3      +0.18     %
   ESolver_KS_LCAO     beforesolver        +10.313        11        +0.94     +0.072    %
   ESolver_KS_LCAO     set_matrix_grid     +5.9624        11        +0.54     +0.042    %
   atom_arrange        search              +0.10205       11        +0.0093   +0.00071  %
   Grid_Technique      init                +2.7504        11        +0.25     +0.019    %
   Grid_BigCell        grid_expansion_index+0.81542       22        +0.037    +0.0057   %
   Record_adj          for_2d              +2.7774        11        +0.25     +0.019    %
   Grid_Driver         Find_atom           +17.506        693864    +2.5e-05  +0.12     %
   Charge              atomic_rho          +13.259        21        +0.63     +0.093    %
   PW_Basis            recip2real          +1.9592        760       +0.0026   +0.014    %
   PW_Basis            gathers_scatterp    +0.96703       760       +0.0013   +0.0068   %
   Potential           init_pot            +0.78071       11        +0.071    +0.0055   %
   Potential           update_from_charge  +9.1226        139       +0.066    +0.064    %
   Potential           cal_v_eff           +9.0778        139       +0.065    +0.064    %
   H_Hartree_pw        v_hartree           +0.95207       139       +0.0068   +0.0067   %
   PW_Basis            real2recip          +2.8147        1156      +0.0024   +0.02     %
   PW_Basis            gatherp_scatters    +1.0976        1156      +0.00095  +0.0077   %
   PotXC               cal_v_eff           +8.0518        139       +0.058    +0.056    %
   XC_Functional       v_xc                +8.0094        139       +0.058    +0.056    %
   HSolverLCAO         solve               +13149         128       +1e+02    +92       %
   HamiltLCAO          updateHk            +4743.5        4608      +1        +33       %
   OperatorLCAO        init                +3947.2        9216      +0.43     +28       %
   Veff                contributeHk        +3944.4        4608      +0.86     +28       %
   Gint_interface      cal_gint            +6289.8        267       +24       +44       %
   Gint_interface      cal_gint_vlocal     +3020.3        128       +24       +21       %
   Gint_k              folding_vl_k        +924.09        4608      +0.2      +6.5      %
   Gint_k              Distri              +663.9         4608      +0.14     +4.6      %
   Overlap             contributeHR        +5.2572        11        +0.48     +0.037    %
   LCAO_gen_fixedH     calculate_S_no      +5.2571        11        +0.48     +0.037    %
   Ekinetic<OperatorLCAO>contributeHR        +5.3091        11        +0.48     +0.037    %
   Nonlocal<OperatorLCAO>contributeHR        +53.906        11        +4.9      +0.38     %
   LCAO_gen_fixedH     build_Nonlocal_mu_new+169.99        22        +7.7      +1.2      %
   ORB_gen_tables      snap_psibeta_half   +3.6014        1286895   +2.8e-06  +0.025    %
   OperatorLCAO        folding_fixed       +731.74        4608      +0.16     +5.1      %
   LCAO_nnr            folding_fixedH      +723.93        4608      +0.16     +5.1      %
   HSolverLCAO         hamiltSolvePsiK     +1950.6        4608      +0.42     +14       %
   DiagoElpa           elpa_solve          +1933.9        4608      +0.42     +14       %
   ElecStateLCAO       psiToRho            +6454.7        128       +50       +45       %
   elecstate           cal_dm              +164.83        139       +1.2      +1.2      %
   psiMulPsiMpi        pdgemm              +159.48        5004      +0.032    +1.1      %
    Local_Orbital_wfc  wfc_2d_to_grid      +28.758        4608      +0.0062   +0.2      %
   LCAO_Charge         cal_dk_k            +3564.4        128       +28       +25       %
   Record_adj          for_grid            +0.73361       128       +0.0057   +0.0051   %
   Gint_interface      cal_gint_rho        +2714.4        128       +21       +19       %
   Charge              mix_rho             +1.3549        117       +0.012    +0.0095   %
   Force_Stress_LCAO   getForceStress      +1088.3        11        +99       +7.6      %
   Forces              cal_force_loc       +0.88086       11        +0.08     +0.0062   %
   Forces              cal_force_ew        +0.86728       11        +0.079    +0.0061   %
   Forces              cal_force_scc       +7.4599        11        +0.68     +0.052    %
   Stress_Func         stress_loc          +6.4048        11        +0.58     +0.045    %
   Stress_Func         stress_ewa          +0.39325       11        +0.036    +0.0028   %
   Stress_Func         stress_gga          +0.38482       11        +0.035    +0.0027   %
   Force_LCAO_k        ftable_k            +1071.8        11        +97       +7.5      %
   Force_LCAO_k        allocate_k          +150.51        11        +14       +1.1      %
   Force_LCAO_k        cal_foverlap_k      +29.018        11        +2.6      +0.2      %
   Force_LCAO_k        cal_edm_2d          +27.987        11        +2.5      +0.2      %
   Local_Orbital_Chargecal_dm_R            +12.759        22        +0.58     +0.089    %
   Force_LCAO_k        cal_ftvnl_dphi_k    +0.32511       11        +0.03     +0.0023   %
   Force_LCAO_k        cal_fvl_dphi_k      +555.15        11        +50       +3.9      %
   Gint_interface      cal_gint_force      +555.15        11        +50       +3.9      %
   Force_LCAO_k        cal_fvnl_dbeta_k_new+307.77        11        +28       +2.2      %
 ----------------------------------------------------------------------------------------

 CLASS_NAME---------|NAME---------------|MEMORY(MB)--------
                                         +2.882e+04
 ORB_table_phi       Jl(x)               +138.2         
 allocate_pvpR       pvpR_reduced        +95.57         
 LocalOrbital_Charge Density_Matrix      +95.57         
 stress_lo           dSR                 +77.13         
 force_lo            dS                  +38.56         
 force_lo            dTVNL               +38.56         
 Force_LCAO_k        dm2d                +12.85         
 ORB_table_phi       Table_SR&TR         +10.58         
 Grid_Meshcell       index2normal        +7.305         
 Grid_Meshcell       index2ucell         +7.305         
 Charge_Mixing       Rrho                +6.328         
 Charge_Mixing       dRrho               +5.537         
 Charge_Mixing       drho                +5.537         
 LocalOrbital_Coef   wfc_k_grid          +4.181         
 init_meshball       meshball_pos        +3.219         
 atoms_on_grid       which_atom          +2.575         
 atoms_on_grid       which_bigcell       +2.575         
 atoms_on_grid       which_unitcell      +2.575         
 ORB_table_beta      Table_NR            +2.045         
 PW_Basis            struc_fac           +1.261         
 ----------------------------------------------------------

 Start  Time  : Mon May 22 14:16:30 2023
 Finish Time  : Mon May 22 18:14:44 2023
 Total  Time  : 3 h 58 mins 14 secs 
