WARNING: Total thread number on this node mismatches with hardware availability. This may cause poor performance.
Info: Local MPI proc number: 16,OpenMP thread number: 1,Total thread number: 16,Local thread limit: 32
 *********************************************************
 *                                                       *
 *                  WELCOME TO ABACUS v3.0               *
 *                                                       *
 *            'Atomic-orbital Based Ab-initio            *
 *                  Computation at UStc'                 *
 *                                                       *
 *          Website: http://abacus.ustc.edu.cn/          *
 *                                                       *
 *********************************************************
 Mon May 22 14:16:29 2023
 MAKE THE DIR         : OUT.ABACUS/
 MAKE THE STRU DIR    : OUT.ABACUS/STRU/
 UNIFORM GRID DIM     : 120 * 120 * 128
 UNIFORM GRID DIM(BIG): 60 * 60 * 64
 DONE(0.119322   SEC) : SETUP UNITCELL
 DONE(0.128054   SEC) : INIT K-POINTS
 ---------------------------------------------------------
 Molecular Dynamics simulations
 ---------------------------------------------------------
 ENSEMBLE                 : Langevin
 Time interval(fs)        : 1
 ---------------------------------------------------------
 SPIN    KPOINTS         PROCESSORS  NBASE       
 1       36              16          1584        
 ---------------------------------------------------------
 Use Systematically Improvable Atomic bases
 ---------------------------------------------------------
 ELEMENT ORBITALS        NBASE       NATOM       XC          
 Si      3s3p2d-9au      22          36          
 C       3s3p2d-9au      22          36          
 ---------------------------------------------------------
 Initial plane wave basis and FFT box
 ---------------------------------------------------------
--------------------------------- INITVEL DONE ------------------------------------
 -------------------------------------------
 STEP OF MOLECULAR DYNAMICS : 0
 -------------------------------------------
 START CHARGE      : atomic
 DONE(10.2509    SEC) : INIT SCF
 ITER   ETOT(eV)       EDIFF(eV)      DRHO       TIME(s)    
 GE1    -9.379850e+03  0.000000e+00   2.724e-01  1.065e+02  
 GE2    -9.435288e+03  -5.543846e+01  1.523e-01  1.004e+02  
 GE3    -9.450218e+03  -1.492973e+01  2.699e-02  1.004e+02  
 GE4    -9.447739e+03  2.479041e+00   4.084e-02  1.000e+02  
 GE5    -9.452454e+03  -4.715621e+00  6.418e-03  1.003e+02  
 GE6    -9.452563e+03  -1.088023e-01  2.898e-03  1.002e+02  
 GE7    -9.452597e+03  -3.369201e-02  1.640e-03  1.004e+02  
 GE8    -9.452607e+03  -1.008453e-02  4.471e-04  1.005e+02  
 GE9    -9.452608e+03  -5.452845e-04  1.839e-04  1.005e+02  
 GE10   -9.452608e+03  -9.293369e-05  1.436e-04  1.005e+02  
 GE11   -9.452608e+03  -7.004224e-05  3.672e-05  1.005e+02  
 GE12   -9.452608e+03  -4.978573e-06  2.344e-05  1.004e+02  
 GE13   -9.452608e+03  -1.460919e-06  1.174e-05  1.003e+02  
 GE14   -9.452608e+03  -4.438015e-07  2.690e-06  1.003e+02  
 GE15   -9.452608e+03  -1.391027e-08  1.248e-06  1.005e+02  
 GE16   -9.452608e+03  -1.175559e-10  7.116e-07  1.005e+02  
 ><><><><><><><><><><><><><><><><><><><><><><
 TOTAL-STRESS (KBAR):
 ><><><><><><><><><><><><><><><><><><><><><><
 4.600e+01      3.792e+01      4.594e+01      
 3.792e+01      -4.660e+01     -3.281e+01     
 4.594e+01      -3.281e+01     3.847e-01      
 TOTAL-PRESSURE: -7.113e-02 KBAR
 ------------------------------------------------------------------------------------------------
 Energy              Potential           Kinetic             Temperature         Pressure (KBAR)     
 -3.474e+02          -3.474e+02          3.373e-03           1.000e+01           5.689e-02           
 ------------------------------------------------------------------------------------------------
 -------------------------------------------
 STEP OF MOLECULAR DYNAMICS : 1
 -------------------------------------------
 DONE(1.721e+03  SEC) : INIT SCF
 ITER   ETOT(eV)       EDIFF(eV)      DRHO       TIME(s)    
 GE1    -9.452637e+03  0.000000e+00   4.322e-04  1.058e+02  
 GE2    -9.452637e+03  6.564203e-05   2.378e-04  9.988e+01  
 GE3    -9.452637e+03  -1.060228e-04  2.509e-04  1.000e+02  
 GE4    -9.452638e+03  -1.951941e-04  6.088e-05  9.997e+01  
 GE5    -9.452638e+03  -9.251146e-06  4.693e-05  9.982e+01  
 GE6    -9.452638e+03  -8.498324e-06  1.699e-05  9.974e+01  
 GE7    -9.452638e+03  -9.197624e-07  5.737e-06  9.990e+01  
 GE8    -9.452638e+03  -1.005583e-07  1.136e-06  1.001e+02  
 GE9    -9.452638e+03  -2.040214e-09  5.176e-07  9.980e+01  
 ><><><><><><><><><><><><><><><><><><><><><><
 TOTAL-STRESS (KBAR):
 ><><><><><><><><><><><><><><><><><><><><><><
 4.570e+01      3.777e+01      4.580e+01      
 3.777e+01      -4.670e+01     -3.290e+01     
 4.580e+01      -3.290e+01     4.223e-01      
 TOTAL-PRESSURE: -1.919e-01 KBAR
 ------------------------------------------------------------------------------------------------
 Energy              Potential           Kinetic             Temperature         Pressure (KBAR)     
 -3.474e+02          -3.474e+02          7.547e-03           2.238e+01           9.456e-02           
 ------------------------------------------------------------------------------------------------
 -------------------------------------------
 STEP OF MOLECULAR DYNAMICS : 2
 -------------------------------------------
 DONE(2.724e+03  SEC) : INIT SCF
 ITER   ETOT(eV)       EDIFF(eV)      DRHO       TIME(s)    
 GE1    -9.452685e+03  0.000000e+00   1.563e-03  1.050e+02  
 GE2    -9.452685e+03  4.621509e-04   9.782e-04  9.934e+01  
 GE3    -9.452687e+03  -2.303304e-03  8.437e-04  9.950e+01  
 GE4    -9.452689e+03  -1.966542e-03  2.288e-04  9.948e+01  
 GE5    -9.452689e+03  -1.579424e-04  1.657e-04  9.965e+01  
 GE6    -9.452689e+03  -9.945238e-05  5.749e-05  9.943e+01  
 GE7    -9.452689e+03  -1.047829e-05  2.574e-05  9.941e+01  
 GE8    -9.452689e+03  -2.177671e-06  5.689e-06  9.955e+01  
 GE9    -9.452689e+03  -9.777097e-08  2.687e-06  9.968e+01  
 GE10   -9.452689e+03  -2.374785e-08  1.177e-06  9.960e+01  
 GE11   -9.452689e+03  -3.110592e-09  5.265e-07  9.969e+01  
 ><><><><><><><><><><><><><><><><><><><><><><
 TOTAL-STRESS (KBAR):
 ><><><><><><><><><><><><><><><><><><><><><><
 4.525e+01      3.791e+01      4.532e+01      
 3.791e+01      -4.704e+01     -3.313e+01     
 4.532e+01      -3.313e+01     6.662e-01      
 TOTAL-PRESSURE: -3.746e-01 KBAR
 ------------------------------------------------------------------------------------------------
 Energy              Potential           Kinetic             Temperature         Pressure (KBAR)     
 -3.474e+02          -3.474e+02          1.882e-02           5.581e+01           3.398e-01           
 ------------------------------------------------------------------------------------------------
 -------------------------------------------
 STEP OF MOLECULAR DYNAMICS : 3
 -------------------------------------------
 DONE(3.922e+03  SEC) : INIT SCF
 ITER   ETOT(eV)       EDIFF(eV)      DRHO       TIME(s)    
 GE1    -9.452670e+03  0.000000e+00   1.839e-03  1.057e+02  
 GE2    -9.452667e+03  2.587582e-03   1.212e-03  1.000e+02  
 GE3    -9.452670e+03  -3.077316e-03  1.190e-03  1.001e+02  
 GE4    -9.452675e+03  -4.757636e-03  3.381e-04  1.001e+02  
 GE5    -9.452676e+03  -3.634890e-04  1.707e-04  1.002e+02  
 GE6    -9.452676e+03  -9.646832e-05  5.956e-05  1.003e+02  
 GE7    -9.452676e+03  -1.033116e-05  2.741e-05  1.002e+02  
 GE8    -9.452676e+03  -2.495536e-06  6.665e-06  1.001e+02  
 GE9    -9.452676e+03  -1.388691e-07  2.348e-06  1.001e+02  
 GE10   -9.452676e+03  -1.006805e-08  9.377e-07  9.995e+01  
 ><><><><><><><><><><><><><><><><><><><><><><
 TOTAL-STRESS (KBAR):
 ><><><><><><><><><><><><><><><><><><><><><><
 4.592e+01      3.845e+01      4.495e+01      
 3.845e+01      -4.738e+01     -3.300e+01     
 4.495e+01      -3.300e+01     6.278e-01      
 TOTAL-PRESSURE: -2.772e-01 KBAR
 ------------------------------------------------------------------------------------------------
 Energy              Potential           Kinetic             Temperature         Pressure (KBAR)     
 -3.474e+02          -3.474e+02          2.407e-02           7.138e+01           6.366e-01           
 ------------------------------------------------------------------------------------------------
 -------------------------------------------
 STEP OF MOLECULAR DYNAMICS : 4
 -------------------------------------------
 DONE(5.026e+03  SEC) : INIT SCF
 ITER   ETOT(eV)       EDIFF(eV)      DRHO       TIME(s)    
 GE1    -9.452710e+03  0.000000e+00   2.434e-03  1.058e+02  
 GE2    -9.452708e+03  1.817011e-03   1.444e-03  9.989e+01  
 GE3    -9.452713e+03  -5.150753e-03  1.356e-03  9.993e+01  
 GE4    -9.452718e+03  -5.532117e-03  3.419e-04  1.001e+02  
 GE5    -9.452719e+03  -2.828284e-04  2.272e-04  1.002e+02  
 GE6    -9.452719e+03  -1.995024e-04  9.935e-05  1.001e+02  
 GE7    -9.452719e+03  -3.600900e-05  4.197e-05  1.001e+02  
 GE8    -9.452719e+03  -5.791357e-06  7.693e-06  1.001e+02  
 GE9    -9.452719e+03  -1.531739e-07  4.329e-06  1.002e+02  
 GE10   -9.452719e+03  -6.858925e-08  1.852e-06  1.001e+02  
 GE11   -9.452719e+03  -8.924971e-09  7.641e-07  1.001e+02  
 ><><><><><><><><><><><><><><><><><><><><><><
 TOTAL-STRESS (KBAR):
 ><><><><><><><><><><><><><><><><><><><><><><
 4.537e+01      3.881e+01      4.505e+01      
 3.881e+01      -4.704e+01     -3.288e+01     
 4.505e+01      -3.288e+01     5.431e-01      
 TOTAL-PRESSURE: -3.755e-01 KBAR
 ------------------------------------------------------------------------------------------------
 Energy              Potential           Kinetic             Temperature         Pressure (KBAR)     
 -3.473e+02          -3.474e+02          3.982e-02           1.181e+02           1.136e+00           
 ------------------------------------------------------------------------------------------------
 -------------------------------------------
 STEP OF MOLECULAR DYNAMICS : 5
 -------------------------------------------
 DONE(6.231e+03  SEC) : INIT SCF
 ITER   ETOT(eV)       EDIFF(eV)      DRHO       TIME(s)    
 GE1    -9.452738e+03  0.000000e+00   2.662e-03  1.059e+02  
 GE2    -9.452733e+03  4.541379e-03   1.660e-03  1.000e+02  
 GE3    -9.452740e+03  -6.887179e-03  1.628e-03  9.994e+01  
 GE4    -9.452748e+03  -8.216737e-03  3.757e-04  9.991e+01  
 GE5    -9.452748e+03  -3.499596e-04  2.654e-04  9.996e+01  
 GE6    -9.452749e+03  -2.832597e-04  1.083e-04  1.001e+02  
 GE7    -9.452749e+03  -3.782985e-05  4.380e-05  1.001e+02  
 GE8    -9.452749e+03  -6.251341e-06  7.859e-06  9.978e+01  
 GE9    -9.452749e+03  -1.825412e-07  6.284e-06  9.969e+01  
 GE10   -9.452749e+03  -1.616240e-07  1.786e-06  9.996e+01  
 GE11   -9.452749e+03  -9.211127e-09  5.678e-07  9.995e+01  
 ><><><><><><><><><><><><><><><><><><><><><><
 TOTAL-STRESS (KBAR):
 ><><><><><><><><><><><><><><><><><><><><><><
 4.595e+01      3.933e+01      4.495e+01      
 3.933e+01      -4.825e+01     -3.323e+01     
 4.495e+01      -3.323e+01     1.487e+00      
 TOTAL-PRESSURE: -2.711e-01 KBAR
 ------------------------------------------------------------------------------------------------
 Energy              Potential           Kinetic             Temperature         Pressure (KBAR)     
 -3.473e+02          -3.474e+02          4.532e-02           1.344e+02           1.449e+00           
 ------------------------------------------------------------------------------------------------
 -------------------------------------------
 STEP OF MOLECULAR DYNAMICS : 6
 -------------------------------------------
 DONE(7.434e+03  SEC) : INIT SCF
 ITER   ETOT(eV)       EDIFF(eV)      DRHO       TIME(s)    
 GE1    -9.452772e+03  0.000000e+00   2.756e-03  1.058e+02  
 GE2    -9.452773e+03  -1.203232e-03  1.562e-03  1.000e+02  
 GE3    -9.452778e+03  -5.168336e-03  1.250e-03  9.987e+01  
 GE4    -9.452782e+03  -4.206814e-03  3.357e-04  9.981e+01  
 GE5    -9.452782e+03  -2.237957e-04  1.903e-04  9.998e+01  
 GE6    -9.452783e+03  -1.296349e-04  1.031e-04  9.989e+01  
 GE7    -9.452783e+03  -3.397929e-05  3.110e-05  1.001e+02  
 GE8    -9.452783e+03  -4.163208e-06  1.075e-05  1.000e+02  
 GE9    -9.452783e+03  -3.681790e-07  2.743e-06  9.998e+01  
 GE10   -9.452783e+03  -1.917245e-08  1.070e-06  9.996e+01  
 GE11   -9.452783e+03  -4.795045e-10  6.399e-07  9.995e+01  
 ><><><><><><><><><><><><><><><><><><><><><><
 TOTAL-STRESS (KBAR):
 ><><><><><><><><><><><><><><><><><><><><><><
 4.522e+01      3.939e+01      4.531e+01      
 3.939e+01      -4.791e+01     -3.340e+01     
 4.531e+01      -3.340e+01     1.510e+00      
 TOTAL-PRESSURE: -3.938e-01 KBAR
 ------------------------------------------------------------------------------------------------
 Energy              Potential           Kinetic             Temperature         Pressure (KBAR)     
 -3.473e+02          -3.474e+02          6.356e-02           1.884e+02           2.019e+00           
 ------------------------------------------------------------------------------------------------
 -------------------------------------------
 STEP OF MOLECULAR DYNAMICS : 7
 -------------------------------------------
 DONE(8.637e+03  SEC) : INIT SCF
 ITER   ETOT(eV)       EDIFF(eV)      DRHO       TIME(s)    
 GE1    -9.452724e+03  0.000000e+00   3.351e-03  1.059e+02  
 GE2    -9.452719e+03  5.532275e-03   1.912e-03  1.001e+02  
 GE3    -9.452728e+03  -9.276034e-03  1.883e-03  1.000e+02  
 GE4    -9.452740e+03  -1.172120e-02  4.501e-04  1.001e+02  
 GE5    -9.452740e+03  -4.968356e-04  3.017e-04  1.002e+02  
 GE6    -9.452741e+03  -3.511781e-04  1.406e-04  1.002e+02  
 GE7    -9.452741e+03  -6.758723e-05  4.984e-05  1.004e+02  
 GE8    -9.452741e+03  -8.492976e-06  1.225e-05  1.004e+02  
 GE9    -9.452741e+03  -4.359516e-07  7.168e-06  1.003e+02  
 GE10   -9.452741e+03  -2.030392e-07  2.358e-06  1.003e+02  
 GE11   -9.452741e+03  -1.640524e-08  9.363e-07  1.003e+02  
 ><><><><><><><><><><><><><><><><><><><><><><
 TOTAL-STRESS (KBAR):
 ><><><><><><><><><><><><><><><><><><><><><><
 4.470e+01      4.090e+01      4.607e+01      
 4.090e+01      -4.667e+01     -3.340e+01     
 4.607e+01      -3.340e+01     1.853e+00      
 TOTAL-PRESSURE: -3.677e-02 KBAR
 ------------------------------------------------------------------------------------------------
 Energy              Potential           Kinetic             Temperature         Pressure (KBAR)     
 -3.473e+02          -3.474e+02          7.822e-02           2.319e+02           2.932e+00           
 ------------------------------------------------------------------------------------------------
 -------------------------------------------
 STEP OF MOLECULAR DYNAMICS : 8
 -------------------------------------------
 DONE(9.844e+03  SEC) : INIT SCF
 ITER   ETOT(eV)       EDIFF(eV)      DRHO       TIME(s)    
 GE1    -9.452770e+03  0.000000e+00   3.757e-03  1.060e+02  
 GE2    -9.452771e+03  -7.525166e-04  2.240e-03  1.002e+02  
 GE3    -9.452783e+03  -1.206928e-02  1.794e-03  1.002e+02  
 GE4    -9.452792e+03  -9.094776e-03  4.681e-04  1.001e+02  
 GE5    -9.452792e+03  -4.369025e-04  2.468e-04  1.002e+02  
 GE6    -9.452792e+03  -2.025041e-04  1.345e-04  1.001e+02  
 GE7    -9.452792e+03  -6.016528e-05  4.613e-05  1.000e+02  
 GE8    -9.452792e+03  -8.913455e-06  1.603e-05  1.001e+02  
 GE9    -9.452792e+03  -9.451885e-07  5.624e-06  1.002e+02  
 GE10   -9.452792e+03  -8.754360e-08  2.176e-06  1.001e+02  
 GE11   -9.452792e+03  -1.714461e-08  1.226e-06  1.001e+02  
 GE12   -9.452792e+03  -3.679811e-09  5.037e-07  1.001e+02  
 ><><><><><><><><><><><><><><><><><><><><><><
 TOTAL-STRESS (KBAR):
 ><><><><><><><><><><><><><><><><><><><><><><
 4.271e+01      4.099e+01      4.603e+01      
 4.099e+01      -4.691e+01     -3.440e+01     
 4.603e+01      -3.440e+01     3.013e+00      
 TOTAL-PRESSURE: -3.936e-01 KBAR
 ------------------------------------------------------------------------------------------------
 Energy              Potential           Kinetic             Temperature         Pressure (KBAR)     
 -3.473e+02          -3.474e+02          7.414e-02           2.198e+02           2.421e+00           
 ------------------------------------------------------------------------------------------------
 -------------------------------------------
 STEP OF MOLECULAR DYNAMICS : 9
 -------------------------------------------
 DONE(1.115e+04  SEC) : INIT SCF
 ITER   ETOT(eV)       EDIFF(eV)      DRHO       TIME(s)    
 GE1    -9.452732e+03  0.000000e+00   3.526e-03  1.057e+02  
 GE2    -9.452728e+03  4.339582e-03   2.187e-03  1.000e+02  
 GE3    -9.452741e+03  -1.353997e-02  2.005e-03  1.001e+02  
 GE4    -9.452752e+03  -1.034705e-02  4.011e-04  1.001e+02  
 GE5    -9.452752e+03  -2.830548e-04  2.298e-04  9.996e+01  
 GE6    -9.452752e+03  -1.606565e-04  1.213e-04  1.002e+02  
 GE7    -9.452752e+03  -4.428946e-05  4.675e-05  1.001e+02  
 GE8    -9.452752e+03  -9.008145e-06  1.526e-05  1.001e+02  
 GE9    -9.452752e+03  -7.820719e-07  4.596e-06  9.996e+01  
 GE10   -9.452752e+03  -5.927604e-08  1.785e-06  1.001e+02  
 GE11   -9.452752e+03  -1.076720e-08  1.117e-06  1.002e+02  
 GE12   -9.452752e+03  -2.946633e-09  4.183e-07  1.001e+02  
 ><><><><><><><><><><><><><><><><><><><><><><
 TOTAL-STRESS (KBAR):
 ><><><><><><><><><><><><><><><><><><><><><><
 4.206e+01      4.009e+01      4.534e+01      
 4.009e+01      -4.707e+01     -3.444e+01     
 4.534e+01      -3.444e+01     3.710e+00      
 TOTAL-PRESSURE: -4.312e-01 KBAR
 ------------------------------------------------------------------------------------------------
 Energy              Potential           Kinetic             Temperature         Pressure (KBAR)     
 -3.473e+02          -3.474e+02          7.816e-02           2.317e+02           2.536e+00           
 ------------------------------------------------------------------------------------------------
 -------------------------------------------
 STEP OF MOLECULAR DYNAMICS : 10
 -------------------------------------------
 DONE(1.245e+04  SEC) : INIT SCF
 ITER   ETOT(eV)       EDIFF(eV)      DRHO       TIME(s)    
 GE1    -9.452790e+03  0.000000e+00   3.588e-03  1.059e+02  
 GE2    -9.452786e+03  4.042597e-03   2.132e-03  9.996e+01  
 GE3    -9.452797e+03  -1.088571e-02  1.940e-03  9.999e+01  
 GE4    -9.452808e+03  -1.136984e-02  5.429e-04  9.998e+01  
 GE5    -9.452809e+03  -8.930631e-04  3.823e-04  1.002e+02  
 GE6    -9.452810e+03  -5.088655e-04  1.351e-04  9.991e+01  
 GE7    -9.452810e+03  -5.838231e-05  5.820e-05  1.001e+02  
 GE8    -9.452810e+03  -1.141878e-05  1.004e-05  1.001e+02  
 GE9    -9.452810e+03  -2.121436e-07  4.641e-06  1.000e+02  
 GE10   -9.452810e+03  -6.611903e-08  2.459e-06  1.001e+02  
 GE11   -9.452810e+03  -2.497445e-08  1.214e-06  1.002e+02  
 GE12   -9.452810e+03  -4.422269e-09  3.599e-07  1.000e+02  
 ><><><><><><><><><><><><><><><><><><><><><><
 TOTAL-STRESS (KBAR):
 ><><><><><><><><><><><><><><><><><><><><><><
 3.937e+01      3.894e+01      4.567e+01      
 3.894e+01      -4.578e+01     -3.484e+01     
 4.567e+01      -3.484e+01     4.639e+00      
 TOTAL-PRESSURE: -5.913e-01 KBAR
 ------------------------------------------------------------------------------------------------
 Energy              Potential           Kinetic             Temperature         Pressure (KBAR)     
 -3.473e+02          -3.474e+02          1.072e-01           3.179e+02           3.479e+00           
 ------------------------------------------------------------------------------------------------

  |CLASS_NAME---------|NAME---------------|TIME(Sec)-----|CALLS----|AVG------|PER%-------
                       total               13756          27        5.1e+02   1e+02     %
   Driver              driver_line         13756          1         1.4e+04   1e+02     %
   PW_Basis            setup_struc_factor  1.2243         11        0.11      0.0089    %
   ORB_control         read_orb_first      0.22734        1         0.23      0.0017    %
   LCAO_Orbitals       Read_Orbitals       0.22734        1         0.23      0.0017    %
   NOrbital_Lm         extra_uniform       0.12277        16        0.0077    0.00089   %
   Mathzone_Add1       Uni_Deriv_Phi       0.10766        16        0.0067    0.00078   %
   ORB_control         set_orb_tables      7.0053         1         7         0.051     %
   ORB_gen_tables      gen_tables          7.0053         1         7         0.051     %
   ORB_table_phi       init_Table          5.1828         1         5.2       0.038     %
   ORB_table_phi       cal_ST_Phi12_R      5.1336         558       0.0092    0.037     %
   ORB_table_beta      init_Table_Beta     1.3401         1         1.3       0.0097    %
   ORB_table_beta      VNL_PhiBeta_R       1.3327         168       0.0079    0.0097    %
   ppcell_vl           init_vloc           0.25949        1         0.26      0.0019    %
   Run_MD              md_line             13748          1         1.4e+04   1e+02     %
   Langevin            setup               1710.9         1         1.7e+03   12        %
   MD_func             force_stress        13748          11        1.2e+03   1e+02     %
   ESolver_KS_LCAO     Run                 12696          11        1.2e+03   92        %
   ESolver_KS_LCAO     beforescf           26.309         11        2.4       0.19      %
   ESolver_KS_LCAO     beforesolver        10.237         11        0.93      0.074     %
   ESolver_KS_LCAO     set_matrix_grid     6.0321         11        0.55      0.044     %
   atom_arrange        search              0.10136        11        0.0092    0.00074   %
   Grid_Technique      init                3.1834         11        0.29      0.023     %
   Grid_BigCell        grid_expansion_index0.96837        22        0.044     0.007     %
   Record_adj          for_2d              2.4035         11        0.22      0.017     %
   Grid_Driver         Find_atom           16.496         683208    2.4e-05   0.12      %
   Charge              atomic_rho          13.963         21        0.66      0.1       %
   PW_Basis            recip2real          2.3298         750       0.0031    0.017     %
   PW_Basis            gathers_scatterp    1.2399         750       0.0017    0.009     %
   Potential           init_pot            0.90821        11        0.083     0.0066    %
   Potential           update_from_charge  10.287         137       0.075     0.075     %
   Potential           cal_v_eff           10.236         137       0.075     0.074     %
   H_Hartree_pw        v_hartree           1.0744         137       0.0078    0.0078    %
   PW_Basis            real2recip          3.1907         1140      0.0028    0.023     %
   PW_Basis            gatherp_scatters    1.4646         1140      0.0013    0.011     %
   PotXC               cal_v_eff           9.0729         137       0.066     0.066     %
   XC_Functional       v_xc                9.0215         137       0.066     0.066     %
   HSolverLCAO         solve               12647          126       1e+02     92        %
   HamiltLCAO          updateHk            4598.5         4536      1         33        %
   OperatorLCAO        init                3899.6         9072      0.43      28        %
   Veff                contributeHk        3897           4536      0.86      28        %
   Gint_interface      cal_gint            6116.8         263       23        44        %
   Gint_interface      cal_gint_vlocal     2936.3         126       23        21        %
   Gint_k              folding_vl_k        960.74         4536      0.21      7         %
   Gint_k              Distri              710.48         4536      0.16      5.2       %
   Overlap             contributeHR        4.793          11        0.44      0.035     %
   LCAO_gen_fixedH     calculate_S_no      4.793          11        0.44      0.035     %
   Ekinetic<OperatorLCAO>contributeHR        4.8949         11        0.44      0.036     %
   Nonlocal<OperatorLCAO>contributeHR        49.364         11        4.5       0.36      %
   LCAO_gen_fixedH     build_Nonlocal_mu_new156.27         22        7.1       1.1       %
   ORB_gen_tables      snap_psibeta_half   3.4553         1234743   2.8e-06   0.025     %
   OperatorLCAO        folding_fixed       639.82         4536      0.14      4.7       %
   LCAO_nnr            folding_fixedH      632.35         4536      0.14      4.6       %
   HSolverLCAO         hamiltSolvePsiK     1925.9         4536      0.42      14        %
   DiagoElpa           elpa_solve          1911.6         4536      0.42      14        %
   ElecStateLCAO       psiToRho            6122.9         126       49        45        %
   elecstate           cal_dm              164.87         137       1.2       1.2       %
   psiMulPsiMpi        pdgemm              159.51         4932      0.032     1.2       %
    Local_Orbital_wfc  wfc_2d_to_grid      28.575         4536      0.0063    0.21      %
   LCAO_Charge         cal_dk_k            3329.9         126       26        24        %
   Record_adj          for_grid            0.68158        126       0.0054    0.005     %
   Gint_interface      cal_gint_rho        2620.9         126       21        19        %
   Charge              mix_rho             1.5388         115       0.013     0.011     %
   Force_Stress_LCAO   getForceStress      1051.2         11        96        7.6       %
   Forces              cal_force_loc       0.93952        11        0.085     0.0068    %
   Forces              cal_force_ew        0.91474        11        0.083     0.0066    %
   Forces              cal_force_scc       7.8622         11        0.71      0.057     %
   Stress_Func         stress_loc          5.9548         11        0.54      0.043     %
   Stress_Func         stress_ewa          0.41634        11        0.038     0.003     %
   Stress_Func         stress_gga          0.43936        11        0.04      0.0032    %
   Force_LCAO_k        ftable_k            1034.6         11        94        7.5       %
   Force_LCAO_k        allocate_k          138.75         11        13        1         %
   Force_LCAO_k        cal_foverlap_k      28.741         11        2.6       0.21      %
   Force_LCAO_k        cal_edm_2d          27.754         11        2.5       0.2       %
   Local_Orbital_Chargecal_dm_R            12.317         22        0.56      0.09      %
   Force_LCAO_k        cal_ftvnl_dphi_k    0.31565        11        0.029     0.0023    %
   Force_LCAO_k        cal_fvl_dphi_k      559.54         11        51        4.1       %
   Gint_interface      cal_gint_force      559.54         11        51        4.1       %
   Force_LCAO_k        cal_fvnl_dbeta_k_new284.61         11        26        2.1       %
 ----------------------------------------------------------------------------------------

 START  Time  : Mon May 22 14:16:29 2023
 FINISH Time  : Mon May 22 18:05:42 2023
 TOTAL  Time  : 1.4e+04
 SEE INFORMATION IN : OUT.ABACUS/
