WARNING: Total thread number on this node mismatches with hardware availability. This may cause poor performance.
Info: Local MPI proc number: 16,OpenMP thread number: 1,Total thread number: 16,Local thread limit: 32
 *********************************************************
 *                                                       *
 *                  WELCOME TO ABACUS v3.0               *
 *                                                       *
 *            'Atomic-orbital Based Ab-initio            *
 *                  Computation at UStc'                 *
 *                                                       *
 *          Website: http://abacus.ustc.edu.cn/          *
 *                                                       *
 *********************************************************
 Mon May 22 14:16:31 2023
 MAKE THE DIR         : OUT.ABACUS/
 MAKE THE STRU DIR    : OUT.ABACUS/STRU/
 UNIFORM GRID DIM     : 120 * 120 * 120
 UNIFORM GRID DIM(BIG): 60 * 60 * 60
 DONE(0.109166   SEC) : SETUP UNITCELL
 DONE(0.118219   SEC) : INIT K-POINTS
 ---------------------------------------------------------
 Molecular Dynamics simulations
 ---------------------------------------------------------
 ENSEMBLE                 : Langevin
 Time interval(fs)        : 1
 ---------------------------------------------------------
 SPIN    KPOINTS         PROCESSORS  NBASE       
 1       36              16          1584        
 ---------------------------------------------------------
 Use Systematically Improvable Atomic bases
 ---------------------------------------------------------
 ELEMENT ORBITALS        NBASE       NATOM       XC          
 Si      3s3p2d-9au      22          36          
 C       3s3p2d-9au      22          36          
 ---------------------------------------------------------
 Initial plane wave basis and FFT box
 ---------------------------------------------------------
--------------------------------- INITVEL DONE ------------------------------------
 -------------------------------------------
 STEP OF MOLECULAR DYNAMICS : 0
 -------------------------------------------
 START CHARGE      : atomic
 DONE(10.3423    SEC) : INIT SCF
 ITER   ETOT(eV)       EDIFF(eV)      DRHO       TIME(s)    
 GE1    -9.358111e+03  0.000000e+00   2.826e-01  1.189e+02  
 GE2    -9.411561e+03  -5.344962e+01  1.534e-01  1.125e+02  
 GE3    -9.422721e+03  -1.116009e+01  4.332e-02  1.123e+02  
 GE4    -9.417918e+03  4.803001e+00   6.614e-02  1.123e+02  
 GE5    -9.438209e+03  -2.029144e+01  1.701e-02  1.124e+02  
 GE6    -9.438955e+03  -7.455575e-01  7.472e-03  1.125e+02  
 GE7    -9.439008e+03  -5.304857e-02  3.610e-03  1.125e+02  
 GE8    -9.439035e+03  -2.733054e-02  2.534e-03  1.126e+02  
 GE9    -9.439028e+03  7.224189e-03   1.867e-03  1.126e+02  
 GE10   -9.439035e+03  -7.007952e-03  6.640e-04  1.124e+02  
 GE11   -9.439036e+03  -1.258847e-03  3.408e-04  1.125e+02  
 GE12   -9.439037e+03  -4.594270e-04  1.809e-04  1.127e+02  
 GE13   -9.439037e+03  -5.224323e-05  7.273e-05  1.126e+02  
 GE14   -9.439037e+03  -1.509754e-05  2.437e-05  1.125e+02  
 GE15   -9.439037e+03  -1.519367e-06  1.458e-05  1.125e+02  
 GE16   -9.439037e+03  -4.283259e-07  8.853e-06  1.125e+02  
 GE17   -9.439037e+03  -2.775434e-07  3.183e-06  1.124e+02  
 GE18   -9.439037e+03  -2.834026e-08  1.957e-06  1.125e+02  
 GE19   -9.439037e+03  -1.052744e-08  3.711e-07  1.123e+02  
 ><><><><><><><><><><><><><><><><><><><><><><
 TOTAL-STRESS (KBAR):
 ><><><><><><><><><><><><><><><><><><><><><><
 -4.031e+01     -4.396e+01     -1.097e+00     
 -4.396e+01     3.201e+02      -1.654e+01     
 -1.097e+00     -1.654e+01     2.788e+02      
 TOTAL-PRESSURE: 1.862e+02 KBAR
 ------------------------------------------------------------------------------------------------
 Energy              Potential           Kinetic             Temperature         Pressure (KBAR)     
 -3.469e+02          -3.469e+02          3.373e-03           1.000e+01           1.863e+02           
 ------------------------------------------------------------------------------------------------
 -------------------------------------------
 STEP OF MOLECULAR DYNAMICS : 1
 -------------------------------------------
 DONE(2.264e+03  SEC) : INIT SCF
 ITER   ETOT(eV)       EDIFF(eV)      DRHO       TIME(s)    
 GE1    -9.439458e+03  0.000000e+00   8.711e-04  1.183e+02  
 GE2    -9.439456e+03  1.971821e-03   8.114e-04  1.121e+02  
 GE3    -9.439459e+03  -2.520677e-03  7.199e-04  1.121e+02  
 GE4    -9.439460e+03  -1.721523e-03  1.524e-04  1.121e+02  
 GE5    -9.439460e+03  -5.060046e-05  8.036e-05  1.120e+02  
 GE6    -9.439460e+03  -2.647761e-05  3.791e-05  1.120e+02  
 GE7    -9.439460e+03  -4.496820e-06  1.196e-05  1.120e+02  
 GE8    -9.439460e+03  -3.174011e-07  3.598e-06  1.120e+02  
 GE9    -9.439460e+03  -4.228611e-08  2.090e-06  1.120e+02  
 GE10   -9.439460e+03  -1.151430e-08  6.336e-07  1.120e+02  
 ><><><><><><><><><><><><><><><><><><><><><><
 TOTAL-STRESS (KBAR):
 ><><><><><><><><><><><><><><><><><><><><><><
 -3.993e+01     -4.392e+01     -1.212e+00     
 -4.392e+01     3.162e+02      -1.655e+01     
 -1.212e+00     -1.655e+01     2.764e+02      
 TOTAL-PRESSURE: 1.842e+02 KBAR
 ------------------------------------------------------------------------------------------------
 Energy              Potential           Kinetic             Temperature         Pressure (KBAR)     
 -3.469e+02          -3.469e+02          1.471e-02           4.361e+01           1.848e+02           
 ------------------------------------------------------------------------------------------------
 -------------------------------------------
 STEP OF MOLECULAR DYNAMICS : 2
 -------------------------------------------
 DONE(3.499e+03  SEC) : INIT SCF
 ITER   ETOT(eV)       EDIFF(eV)      DRHO       TIME(s)    
 GE1    -9.440101e+03  0.000000e+00   1.724e-03  1.179e+02  
 GE2    -9.440100e+03  1.457273e-03   1.136e-03  1.114e+02  
 GE3    -9.440104e+03  -3.903937e-03  1.018e-03  1.115e+02  
 GE4    -9.440107e+03  -2.927873e-03  2.156e-04  1.115e+02  
 GE5    -9.440107e+03  -1.087658e-04  1.421e-04  1.115e+02  
 GE6    -9.440107e+03  -7.642540e-05  5.827e-05  1.115e+02  
 GE7    -9.440107e+03  -1.130807e-05  2.649e-05  1.116e+02  
 GE8    -9.440107e+03  -2.609196e-06  6.573e-06  1.116e+02  
 GE9    -9.440107e+03  -1.468336e-07  2.776e-06  1.115e+02  
 GE10   -9.440107e+03  -2.813299e-08  1.011e-06  1.115e+02  
 GE11   -9.440107e+03  -2.477956e-09  4.077e-07  1.115e+02  
 ><><><><><><><><><><><><><><><><><><><><><><
 TOTAL-STRESS (KBAR):
 ><><><><><><><><><><><><><><><><><><><><><><
 -3.976e+01     -4.371e+01     -1.707e+00     
 -4.371e+01     3.092e+02      -1.698e+01     
 -1.707e+00     -1.698e+01     2.734e+02      
 TOTAL-PRESSURE: 1.809e+02 KBAR
 ------------------------------------------------------------------------------------------------
 Energy              Potential           Kinetic             Temperature         Pressure (KBAR)     
 -3.469e+02          -3.469e+02          3.573e-02           1.059e+02           1.824e+02           
 ------------------------------------------------------------------------------------------------
 -------------------------------------------
 STEP OF MOLECULAR DYNAMICS : 3
 -------------------------------------------
 DONE(4.841e+03  SEC) : INIT SCF
 ITER   ETOT(eV)       EDIFF(eV)      DRHO       TIME(s)    
 GE1    -9.440975e+03  0.000000e+00   2.120e-03  1.182e+02  
 GE2    -9.440974e+03  1.072661e-03   1.292e-03  1.118e+02  
 GE3    -9.440978e+03  -3.386415e-03  1.162e-03  1.117e+02  
 GE4    -9.440982e+03  -4.611260e-03  3.410e-04  1.117e+02  
 GE5    -9.440983e+03  -3.913466e-04  1.830e-04  1.117e+02  
 GE6    -9.440983e+03  -1.293018e-04  7.105e-05  1.116e+02  
 GE7    -9.440983e+03  -1.519264e-05  2.361e-05  1.117e+02  
 GE8    -9.440983e+03  -2.024012e-06  8.260e-06  1.116e+02  
 GE9    -9.440983e+03  -2.518296e-07  3.643e-06  1.117e+02  
 GE10   -9.440983e+03  -4.084605e-08  1.229e-06  1.118e+02  
 GE11   -9.440983e+03  -2.572310e-09  6.241e-07  1.117e+02  
 ><><><><><><><><><><><><><><><><><><><><><><
 TOTAL-STRESS (KBAR):
 ><><><><><><><><><><><><><><><><><><><><><><
 -3.869e+01     -4.339e+01     -2.525e+00     
 -4.339e+01     3.005e+02      -1.614e+01     
 -2.525e+00     -1.614e+01     2.676e+02      
 TOTAL-PRESSURE: 1.765e+02 KBAR
 ------------------------------------------------------------------------------------------------
 Energy              Potential           Kinetic             Temperature         Pressure (KBAR)     
 -3.469e+02          -3.469e+02          3.900e-02           1.156e+02           1.780e+02           
 ------------------------------------------------------------------------------------------------
 -------------------------------------------
 STEP OF MOLECULAR DYNAMICS : 4
 -------------------------------------------
 DONE(6.185e+03  SEC) : INIT SCF
 ITER   ETOT(eV)       EDIFF(eV)      DRHO       TIME(s)    
 GE1    -9.441458e+03  0.000000e+00   2.662e-03  1.182e+02  
 GE2    -9.441457e+03  1.110691e-03   1.546e-03  1.119e+02  
 GE3    -9.441463e+03  -5.323446e-03  1.407e-03  1.121e+02  
 GE4    -9.441469e+03  -6.275724e-03  3.465e-04  1.120e+02  
 GE5    -9.441469e+03  -3.070153e-04  2.038e-04  1.119e+02  
 GE6    -9.441469e+03  -1.702885e-04  9.735e-05  1.119e+02  
 GE7    -9.441469e+03  -3.280062e-05  3.557e-05  1.120e+02  
 GE8    -9.441469e+03  -4.671868e-06  9.465e-06  1.119e+02  
 GE9    -9.441469e+03  -2.878914e-07  4.019e-06  1.119e+02  
 GE10   -9.441469e+03  -5.373854e-08  1.439e-06  1.121e+02  
 GE11   -9.441469e+03  -3.721574e-09  6.878e-07  1.119e+02  
 ><><><><><><><><><><><><><><><><><><><><><><
 TOTAL-STRESS (KBAR):
 ><><><><><><><><><><><><><><><><><><><><><><
 -3.946e+01     -4.322e+01     -2.364e+00     
 -4.322e+01     2.966e+02      -1.631e+01     
 -2.364e+00     -1.631e+01     2.645e+02      
 TOTAL-PRESSURE: 1.739e+02 KBAR
 ------------------------------------------------------------------------------------------------
 Energy              Potential           Kinetic             Temperature         Pressure (KBAR)     
 -3.469e+02          -3.470e+02          5.002e-02           1.483e+02           1.759e+02           
 ------------------------------------------------------------------------------------------------
 -------------------------------------------
 STEP OF MOLECULAR DYNAMICS : 5
 -------------------------------------------
 DONE(7.532e+03  SEC) : INIT SCF
 ITER   ETOT(eV)       EDIFF(eV)      DRHO       TIME(s)    
 GE1    -9.442059e+03  0.000000e+00   3.023e-03  1.183e+02  
 GE2    -9.442055e+03  3.293444e-03   1.903e-03  1.119e+02  
 GE3    -9.442065e+03  -9.242607e-03  1.732e-03  1.117e+02  
 GE4    -9.442074e+03  -9.202555e-03  3.930e-04  1.117e+02  
 GE5    -9.442074e+03  -2.958016e-04  2.389e-04  1.118e+02  
 GE6    -9.442074e+03  -2.357222e-04  1.372e-04  1.117e+02  
 GE7    -9.442075e+03  -6.713201e-05  3.635e-05  1.118e+02  
 GE8    -9.442075e+03  -4.834083e-06  9.291e-06  1.119e+02  
 GE9    -9.442075e+03  -2.791211e-07  4.726e-06  1.118e+02  
 GE10   -9.442075e+03  -7.677177e-08  1.692e-06  1.119e+02  
 GE11   -9.442075e+03  -7.096667e-09  6.080e-07  1.117e+02  
 ><><><><><><><><><><><><><><><><><><><><><><
 TOTAL-STRESS (KBAR):
 ><><><><><><><><><><><><><><><><><><><><><><
 -3.889e+01     -4.283e+01     -2.642e+00     
 -4.283e+01     2.883e+02      -1.633e+01     
 -2.642e+00     -1.633e+01     2.629e+02      
 TOTAL-PRESSURE: 1.708e+02 KBAR
 ------------------------------------------------------------------------------------------------
 Energy              Potential           Kinetic             Temperature         Pressure (KBAR)     
 -3.469e+02          -3.470e+02          5.813e-02           1.724e+02           1.731e+02           
 ------------------------------------------------------------------------------------------------
 -------------------------------------------
 STEP OF MOLECULAR DYNAMICS : 6
 -------------------------------------------
 DONE(8.877e+03  SEC) : INIT SCF
 ITER   ETOT(eV)       EDIFF(eV)      DRHO       TIME(s)    
 GE1    -9.442635e+03  0.000000e+00   3.170e-03  1.181e+02  
 GE2    -9.442633e+03  1.424625e-03   1.983e-03  1.119e+02  
 GE3    -9.442644e+03  -1.003138e-02  1.620e-03  1.119e+02  
 GE4    -9.442652e+03  -8.291875e-03  4.560e-04  1.122e+02  
 GE5    -9.442652e+03  -6.597102e-04  2.743e-04  1.120e+02  
 GE6    -9.442653e+03  -3.264697e-04  1.120e-04  1.120e+02  
 GE7    -9.442653e+03  -3.950042e-05  3.922e-05  1.119e+02  
 GE8    -9.442653e+03  -5.411705e-06  1.217e-05  1.120e+02  
 GE9    -9.442653e+03  -5.589352e-07  5.508e-06  1.121e+02  
 GE10   -9.442653e+03  -9.537190e-08  1.732e-06  1.119e+02  
 GE11   -9.442653e+03  -5.000768e-09  8.468e-07  1.120e+02  
 ><><><><><><><><><><><><><><><><><><><><><><
 TOTAL-STRESS (KBAR):
 ><><><><><><><><><><><><><><><><><><><><><><
 -3.871e+01     -4.237e+01     -2.415e+00     
 -4.237e+01     2.839e+02      -1.630e+01     
 -2.415e+00     -1.630e+01     2.589e+02      
 TOTAL-PRESSURE: 1.680e+02 KBAR
 ------------------------------------------------------------------------------------------------
 Energy              Potential           Kinetic             Temperature         Pressure (KBAR)     
 -3.469e+02          -3.470e+02          7.663e-02           2.272e+02           1.711e+02           
 ------------------------------------------------------------------------------------------------
 -------------------------------------------
 STEP OF MOLECULAR DYNAMICS : 7
 -------------------------------------------
 DONE(1.022e+04  SEC) : INIT SCF
 ITER   ETOT(eV)       EDIFF(eV)      DRHO       TIME(s)    
 GE1    -9.443123e+03  0.000000e+00   3.847e-03  1.184e+02  
 GE2    -9.443106e+03  1.709946e-02   2.569e-03  1.120e+02  
 GE3    -9.443128e+03  -2.187093e-02  2.492e-03  1.121e+02  
 GE4    -9.443149e+03  -2.107412e-02  4.936e-04  1.121e+02  
 GE5    -9.443150e+03  -6.114121e-04  3.134e-04  1.122e+02  
 GE6    -9.443150e+03  -3.579384e-04  1.357e-04  1.121e+02  
 GE7    -9.443150e+03  -5.847731e-05  5.213e-05  1.123e+02  
 GE8    -9.443150e+03  -9.804912e-06  1.448e-05  1.121e+02  
 GE9    -9.443150e+03  -7.071300e-07  6.230e-06  1.121e+02  
 GE10   -9.443150e+03  -1.170130e-07  2.183e-06  1.120e+02  
 GE11   -9.443150e+03  -1.819642e-08  1.102e-06  1.121e+02  
 GE12   -9.443150e+03  -1.328692e-09  5.457e-07  1.121e+02  
 ><><><><><><><><><><><><><><><><><><><><><><
 TOTAL-STRESS (KBAR):
 ><><><><><><><><><><><><><><><><><><><><><><
 -3.953e+01     -4.082e+01     -2.153e+00     
 -4.082e+01     2.805e+02      -1.796e+01     
 -2.153e+00     -1.796e+01     2.549e+02      
 TOTAL-PRESSURE: 1.653e+02 KBAR
 ------------------------------------------------------------------------------------------------
 Energy              Potential           Kinetic             Temperature         Pressure (KBAR)     
 -3.469e+02          -3.470e+02          8.444e-02           2.504e+02           1.687e+02           
 ------------------------------------------------------------------------------------------------
 -------------------------------------------
 STEP OF MOLECULAR DYNAMICS : 8
 -------------------------------------------
 DONE(1.168e+04  SEC) : INIT SCF
 ITER   ETOT(eV)       EDIFF(eV)      DRHO       TIME(s)    
 GE1    -9.443330e+03  0.000000e+00   3.887e-03  1.187e+02  
 GE2    -9.443327e+03  2.942657e-03   2.359e-03  1.121e+02  
 GE3    -9.443342e+03  -1.477590e-02  2.004e-03  1.122e+02  
 GE4    -9.443355e+03  -1.335930e-02  5.163e-04  1.127e+02  
 GE5    -9.443356e+03  -7.507526e-04  3.271e-04  1.124e+02  
 GE6    -9.443356e+03  -4.446890e-04  1.309e-04  1.121e+02  
 GE7    -9.443356e+03  -6.013195e-05  5.023e-05  1.120e+02  
 GE8    -9.443356e+03  -8.590645e-06  1.071e-05  1.120e+02  
 GE9    -9.443356e+03  -3.269324e-07  4.733e-06  1.117e+02  
 GE10   -9.443356e+03  -7.826287e-08  2.128e-06  1.102e+02  
 GE11   -9.443356e+03  -1.089403e-08  8.670e-07  1.108e+02  
 ><><><><><><><><><><><><><><><><><><><><><><
 TOTAL-STRESS (KBAR):
 ><><><><><><><><><><><><><><><><><><><><><><
 -4.040e+01     -4.021e+01     -1.416e+00     
 -4.021e+01     2.770e+02      -1.829e+01     
 -1.416e+00     -1.829e+01     2.558e+02      
 TOTAL-PRESSURE: 1.641e+02 KBAR
 ------------------------------------------------------------------------------------------------
 Energy              Potential           Kinetic             Temperature         Pressure (KBAR)     
 -3.470e+02          -3.470e+02          8.146e-02           2.415e+02           1.674e+02           
 ------------------------------------------------------------------------------------------------
 -------------------------------------------
 STEP OF MOLECULAR DYNAMICS : 9
 -------------------------------------------
 DONE(1.303e+04  SEC) : INIT SCF
 ITER   ETOT(eV)       EDIFF(eV)      DRHO       TIME(s)    
 GE1    -9.443835e+03  0.000000e+00   4.000e-03  1.183e+02  
 GE2    -9.443825e+03  1.007953e-02   2.795e-03  1.122e+02  
 GE3    -9.443849e+03  -2.383164e-02  2.390e-03  1.119e+02  
 GE4    -9.443866e+03  -1.673283e-02  5.236e-04  1.118e+02  
 GE5    -9.443866e+03  -5.950382e-04  2.934e-04  1.118e+02  
 GE6    -9.443866e+03  -3.216014e-04  1.529e-04  1.116e+02  
 GE7    -9.443867e+03  -8.809097e-05  5.693e-05  1.116e+02  
 GE8    -9.443867e+03  -1.215194e-05  1.542e-05  1.111e+02  
 GE9    -9.443867e+03  -7.969566e-07  6.718e-06  1.113e+02  
 GE10   -9.443867e+03  -1.382180e-07  2.254e-06  1.113e+02  
 GE11   -9.443867e+03  -1.850887e-08  1.079e-06  1.113e+02  
 GE12   -9.443867e+03  -2.199534e-09  4.225e-07  1.114e+02  
 ><><><><><><><><><><><><><><><><><><><><><><
 TOTAL-STRESS (KBAR):
 ><><><><><><><><><><><><><><><><><><><><><><
 -4.096e+01     -4.104e+01     -1.552e+00     
 -4.104e+01     2.723e+02      -1.647e+01     
 -1.552e+00     -1.647e+01     2.530e+02      
 TOTAL-PRESSURE: 1.614e+02 KBAR
 ------------------------------------------------------------------------------------------------
 Energy              Potential           Kinetic             Temperature         Pressure (KBAR)     
 -3.470e+02          -3.471e+02          8.752e-02           2.595e+02           1.649e+02           
 ------------------------------------------------------------------------------------------------
 -------------------------------------------
 STEP OF MOLECULAR DYNAMICS : 10
 -------------------------------------------
 DONE(1.448e+04  SEC) : INIT SCF
 ITER   ETOT(eV)       EDIFF(eV)      DRHO       TIME(s)    
 GE1    -9.444138e+03  0.000000e+00   3.811e-03  1.177e+02  
 GE2    -9.444128e+03  1.026157e-02   2.534e-03  1.113e+02  
 GE3    -9.444148e+03  -2.042760e-02  2.311e-03  1.112e+02  
 GE4    -9.444165e+03  -1.639581e-02  5.398e-04  1.112e+02  
 GE5    -9.444165e+03  -7.553597e-04  3.632e-04  1.112e+02  
 GE6    -9.444166e+03  -4.948077e-04  1.393e-04  1.111e+02  
 GE7    -9.444166e+03  -6.153207e-05  5.818e-05  1.112e+02  
 GE8    -9.444166e+03  -1.187941e-05  1.400e-05  1.110e+02  
 GE9    -9.444166e+03  -6.183752e-07  5.795e-06  1.112e+02  
 GE10   -9.444166e+03  -9.763795e-08  2.457e-06  1.110e+02  
 GE11   -9.444166e+03  -2.395048e-08  1.308e-06  1.111e+02  
 GE12   -9.444166e+03  -4.914148e-09  4.189e-07  1.111e+02  
 ><><><><><><><><><><><><><><><><><><><><><><
 TOTAL-STRESS (KBAR):
 ><><><><><><><><><><><><><><><><><><><><><><
 -4.209e+01     -4.144e+01     -1.059e+00     
 -4.144e+01     2.701e+02      -1.750e+01     
 -1.059e+00     -1.750e+01     2.520e+02      
 TOTAL-PRESSURE: 1.600e+02 KBAR
 ------------------------------------------------------------------------------------------------
 Energy              Potential           Kinetic             Temperature         Pressure (KBAR)     
 -3.470e+02          -3.471e+02          1.049e-01           3.110e+02           1.642e+02           
 ------------------------------------------------------------------------------------------------

  |CLASS_NAME---------|NAME---------------|TIME(Sec)-----|CALLS----|AVG------|PER%-------
                       total               15931          27        5.9e+02   1e+02     %
   Driver              driver_line         15931          1         1.6e+04   1e+02     %
   PW_Basis            setup_struc_factor  1.1889         11        0.11      0.0075    %
   ORB_control         read_orb_first      0.23394        1         0.23      0.0015    %
   LCAO_Orbitals       Read_Orbitals       0.23394        1         0.23      0.0015    %
   NOrbital_Lm         extra_uniform       0.1272         16        0.0079    0.0008    %
   Mathzone_Add1       Uni_Deriv_Phi       0.11215        16        0.007     0.0007    %
   ORB_control         set_orb_tables      7.1013         1         7.1       0.045     %
   ORB_gen_tables      gen_tables          7.1013         1         7.1       0.045     %
   ORB_table_phi       init_Table          5.2652         1         5.3       0.033     %
   ORB_table_phi       cal_ST_Phi12_R      5.2213         558       0.0094    0.033     %
   ORB_table_beta      init_Table_Beta     1.3587         1         1.4       0.0085    %
   ORB_table_beta      VNL_PhiBeta_R       1.3517         168       0.008     0.0085    %
   ppcell_vl           init_vloc           0.24998        1         0.25      0.0016    %
   Run_MD              md_line             15923          1         1.6e+04   1e+02     %
   Langevin            setup               2253.4         1         2.3e+03   14        %
   MD_func             force_stress        15923          11        1.4e+03   1e+02     %
   ESolver_KS_LCAO     Run                 14753          11        1.3e+03   93        %
   ESolver_KS_LCAO     beforescf           27.818         11        2.5       0.17      %
   ESolver_KS_LCAO     beforesolver        10.427         11        0.95      0.065     %
   ESolver_KS_LCAO     set_matrix_grid     6.4142         11        0.58      0.04      %
   atom_arrange        search              0.10291        11        0.0094    0.00065   %
   Grid_Technique      init                3.2354         11        0.29      0.02      %
   Grid_BigCell        grid_expansion_index0.87503        22        0.04      0.0055    %
   Record_adj          for_2d              2.7737         11        0.25      0.017     %
   Grid_Driver         Find_atom           19.297         709848    2.7e-05   0.12      %
   Charge              atomic_rho          14.977         21        0.71      0.094     %
   PW_Basis            recip2real          4.2427         775       0.0055    0.027     %
   PW_Basis            gathers_scatterp    2.8485         775       0.0037    0.018     %
   Potential           init_pot            0.96101        11        0.087     0.006     %
   Potential           update_from_charge  11.33          142       0.08      0.071     %
   Potential           cal_v_eff           11.28          142       0.079     0.071     %
   H_Hartree_pw        v_hartree           1.2134         142       0.0085    0.0076    %
   PW_Basis            real2recip          3.5557         1180      0.003     0.022     %
   PW_Basis            gatherp_scatters    1.3461         1180      0.0011    0.0084    %
   PotXC               cal_v_eff           9.9814         142       0.07      0.063     %
   XC_Functional       v_xc                9.9226         142       0.07      0.062     %
   HSolverLCAO         solve               14704          131       1.1e+02   92        %
   HamiltLCAO          updateHk            5435.1         4716      1.2       34        %
   OperatorLCAO        init                4618.5         9432      0.49      29        %
   Veff                contributeHk        4615.8         4716      0.98      29        %
   Gint_interface      cal_gint            7465.7         273       27        47        %
   Gint_interface      cal_gint_vlocal     3661.9         131       28        23        %
   Gint_k              folding_vl_k        953.79         4716      0.2       6         %
   Gint_k              Distri              679.3          4716      0.14      4.3       %
   Overlap             contributeHR        5.3257         11        0.48      0.033     %
   LCAO_gen_fixedH     calculate_S_no      5.3257         11        0.48      0.033     %
   Ekinetic<OperatorLCAO>contributeHR        5.4548         11        0.5       0.034     %
   Nonlocal<OperatorLCAO>contributeHR        54.529         11        5         0.34      %
   LCAO_gen_fixedH     build_Nonlocal_mu_new170.05         22        7.7       1.1       %
   ORB_gen_tables      snap_psibeta_half   3.623          1273251   2.8e-06   0.023     %
   OperatorLCAO        folding_fixed       751.29         4716      0.16      4.7       %
   LCAO_nnr            folding_fixedH      743.22         4716      0.16      4.7       %
   HSolverLCAO         hamiltSolvePsiK     2056.4         4716      0.44      13        %
   DiagoElpa           elpa_solve          2038.9         4716      0.43      13        %
   ElecStateLCAO       psiToRho            7211.9         131       55        45        %
   elecstate           cal_dm              225.86         142       1.6       1.4       %
   psiMulPsiMpi        pdgemm              219.4          5112      0.043     1.4       %
    Local_Orbital_wfc  wfc_2d_to_grid      34.44          4716      0.0073    0.22      %
   LCAO_Charge         cal_dk_k            3804.2         131       29        24        %
   Record_adj          for_grid            0.75147        131       0.0057    0.0047    %
   Gint_interface      cal_gint_rho        3173.7         131       24        20        %
   Charge              mix_rho             1.6928         120       0.014     0.011     %
   Force_Stress_LCAO   getForceStress      1170.4         11        1.1e+02   7.3       %
   Forces              cal_force_loc       0.89202        11        0.081     0.0056    %
   Forces              cal_force_ew        0.8708         11        0.079     0.0055    %
   Forces              cal_force_scc       7.5017         11        0.68      0.047     %
   Stress_Func         stress_loc          6.4129         11        0.58      0.04      %
   Stress_Func         stress_ewa          0.39597        11        0.036     0.0025    %
   Stress_Func         stress_gga          0.46001        11        0.042     0.0029    %
   Force_LCAO_k        ftable_k            1153.8         11        1e+02     7.2       %
   Force_LCAO_k        allocate_k          150.35         11        14        0.94      %
   Force_LCAO_k        cal_foverlap_k      34.305         11        3.1       0.22      %
   Force_LCAO_k        cal_edm_2d          33.268         11        3         0.21      %
   Local_Orbital_Chargecal_dm_R            12.856         22        0.58      0.081     %
   Force_LCAO_k        cal_ftvnl_dphi_k    0.32406        11        0.029     0.002     %
   Force_LCAO_k        cal_fvl_dphi_k      629.97         11        57        4         %
   Gint_interface      cal_gint_force      629.97         11        57        4         %
   Force_LCAO_k        cal_fvnl_dbeta_k_new305.72         11        28        1.9       %
 ----------------------------------------------------------------------------------------

 START  Time  : Mon May 22 14:16:31 2023
 FINISH Time  : Mon May 22 18:42:03 2023
 TOTAL  Time  : 1.6e+04
 SEE INFORMATION IN : OUT.ABACUS/
