                                                                                     
                             WELCOME TO ABACUS v3.0                                  
                                                                                     
               'Atomic-orbital Based Ab-initio Computation at UStc'                  
                                                                                     
                     Website: http://abacus.ustc.edu.cn/                             
                                                                                     
    Version: Parallel, in development
    Processor Number is 16
    Start Time is Mon May 22 14:16:29 2023
                                                                                     
 ------------------------------------------------------------------------------------

 READING GENERAL INFORMATION
                           global_out_dir = OUT.ABACUS/
                           global_in_card = INPUT
                               pseudo_dir = 
                              orbital_dir = 
                                    DRANK = 1
                                    DSIZE = 16
                                   DCOLOR = 1
                                    GRANK = 1
                                    GSIZE = 1
 The esolver type has been set to : ksdft_lcao




 >>>>>>>>>>>>>>>>>>>>>>>>>>>>>>>>>>>>>>>>>>>>>>>>>>>>>>>>>>>>>>>>>>>>>>
 |                                                                    |
 | Reading atom information in unitcell:                              |
 | From the input file and the structure file we know the number of   |
 | different elments in this unitcell, then we list the detail        |
 | information for each element, especially the zeta and polar atomic |
 | orbital number for each element. The total atom number is counted. |
 | We calculate the nearest atom distance for each atom and show the  |
 | Cartesian and Direct coordinates for each atom. We list the file   |
 | address for atomic orbitals. The volume and the lattice vectors    |
 | in real and reciprocal space is also shown.                        |
 |                                                                    |
 <<<<<<<<<<<<<<<<<<<<<<<<<<<<<<<<<<<<<<<<<<<<<<<<<<<<<<<<<<<<<<<<<<<<<<




 READING UNITCELL INFORMATION
                                    ntype = 2
                 atom label for species 1 = Si
                 atom label for species 2 = C
                  lattice constant (Bohr) = 1.88973
              lattice constant (Angstrom) = 1

 READING ATOM TYPE 1
                               atom label = Si
                      L=0, number of zeta = 3
                      L=1, number of zeta = 3
                      L=2, number of zeta = 2
             number of atom for this type = 36
                      start magnetization = FALSE
                      start magnetization = FALSE
                      start magnetization = FALSE
                      start magnetization = FALSE
                      start magnetization = FALSE
                      start magnetization = FALSE
                      start magnetization = FALSE
                      start magnetization = FALSE
                      start magnetization = FALSE
                      start magnetization = FALSE
                      start magnetization = FALSE
                      start magnetization = FALSE
                      start magnetization = FALSE
                      start magnetization = FALSE
                      start magnetization = FALSE
                      start magnetization = FALSE
                      start magnetization = FALSE
                      start magnetization = FALSE
                      start magnetization = FALSE
                      start magnetization = FALSE
                      start magnetization = FALSE
                      start magnetization = FALSE
                      start magnetization = FALSE
                      start magnetization = FALSE
                      start magnetization = FALSE
                      start magnetization = FALSE
                      start magnetization = FALSE
                      start magnetization = FALSE
                      start magnetization = FALSE
                      start magnetization = FALSE
                      start magnetization = FALSE
                      start magnetization = FALSE
                      start magnetization = FALSE
                      start magnetization = FALSE
                      start magnetization = FALSE
                      start magnetization = FALSE

 READING ATOM TYPE 2
                               atom label = C
                      L=0, number of zeta = 3
                      L=1, number of zeta = 3
                      L=2, number of zeta = 2
             number of atom for this type = 36
                      start magnetization = FALSE
                      start magnetization = FALSE
                      start magnetization = FALSE
                      start magnetization = FALSE
                      start magnetization = FALSE
                      start magnetization = FALSE
                      start magnetization = FALSE
                      start magnetization = FALSE
                      start magnetization = FALSE
                      start magnetization = FALSE
                      start magnetization = FALSE
                      start magnetization = FALSE
                      start magnetization = FALSE
                      start magnetization = FALSE
                      start magnetization = FALSE
                      start magnetization = FALSE
                      start magnetization = FALSE
                      start magnetization = FALSE
                      start magnetization = FALSE
                      start magnetization = FALSE
                      start magnetization = FALSE
                      start magnetization = FALSE
                      start magnetization = FALSE
                      start magnetization = FALSE
                      start magnetization = FALSE
                      start magnetization = FALSE
                      start magnetization = FALSE
                      start magnetization = FALSE
                      start magnetization = FALSE
                      start magnetization = FALSE
                      start magnetization = FALSE
                      start magnetization = FALSE
                      start magnetization = FALSE
                      start magnetization = FALSE
                      start magnetization = FALSE
                      start magnetization = FALSE

                        TOTAL ATOM NUMBER = 72

 CARTESIAN COORDINATES ( UNIT = 1.88973 Bohr ).
         atom                   x                   y                   z                 mag                  vx                  vy                  vz
     tauc_Si1    -0.0498461835808        1.8273721797       2.51260989617                   0                   0                   0                   0
     tauc_Si2       3.02529506995       7.20601699124       2.47302192957                   0                   0                   0                   0
     tauc_Si3       -3.1784341331       7.17816544898       2.39167814789                   0                   0                   0                   0
     tauc_Si4       4.54497896789        6.3618101011       5.07446013405                   0                   0                   0                   0
     tauc_Si5       1.46649880296      0.966489095912       5.08985609903                   0                   0                   0                   0
     tauc_Si6       7.67932962468       1.02954876155       5.17062205639                   0                   0                   0                   0
     tauc_Si7     -0.124555540761       1.88504443154       7.60158158112                   0                   0                   0                   0
     tauc_Si8       2.95076220498       7.28798106943       7.57713767245                   0                   0                   0                   0
     tauc_Si9      -3.23469647003       7.22097322855       7.48299392682                   0                   0                   0                   0
    tauc_Si10       4.47316741157       6.40825024787       10.1421458109                   0                   0                   0                   0
    tauc_Si11       1.69132229046      0.761904626453    0.00209230334174                   0                   0                   0                   0
    tauc_Si12       7.88677731215      0.811304340758      0.100925431196                   0                   0                   0                   0
    tauc_Si13      -1.63049486791       4.49978611216       2.45658324097                   0                   0                   0                   0
    tauc_Si14       1.47750724081       4.51339426099       2.50388602802                   0                   0                   0                   0
    tauc_Si15    -0.0722172359606       7.18669209533       2.45695791313                   0                   0                   0                   0
    tauc_Si16       6.09898066769       3.67720319558       5.13469060652                   0                   0                   0                   0
    tauc_Si17       2.99327836665       3.66336395383       5.06015672302                   0                   0                   0                   0
    tauc_Si18       4.57385711732      0.984802783346       5.16306452106                   0                   0                   0                   0
    tauc_Si19      -1.68714462339       4.57080282207       7.52230216441                   0                   0                   0                   0
    tauc_Si20        1.3935640395       4.56337550633       7.61120016725                   0                   0                   0                   0
    tauc_Si21     -0.152036349419       7.25911544579       7.52655177325                   0                   0                   0                   0
    tauc_Si22       6.32145571299       3.48975068412     0.0301930094964                   0                   0                   0                   0
    tauc_Si23       2.93276224199       3.71895691722       10.1553075968                   0                   0                   0                   0
    tauc_Si24       4.77827273315      0.776759765874     0.0460524529584                   0                   0                   0                   0
    tauc_Si25       3.04137750449        1.8364009256        2.5542307522                   0                   0                   0                   0
    tauc_Si26        6.1472644901        1.8655611051       2.60155533121                   0                   0                   0                   0
    tauc_Si27       4.57152919666       4.52925219886       2.55643156984                   0                   0                   0                   0
    tauc_Si28       1.42816470344       6.32577154224       5.03163336096                   0                   0                   0                   0
    tauc_Si29      -1.67235782639       6.31246588416       4.97140141844                   0                   0                   0                   0
    tauc_Si30    -0.0864404169983        3.6386952027       5.05097743872                   0                   0                   0                   0
    tauc_Si31       2.98108760293       1.90776325649       7.64617652785                   0                   0                   0                   0
    tauc_Si32       6.08058242817       1.93431535773       7.67406811351                   0                   0                   0                   0
    tauc_Si33        4.5191971626       4.61020471519       7.62515536223                   0                   0                   0                   0
    tauc_Si34       1.35643969316       6.38949750956        10.114348926                   0                   0                   0                   0
    tauc_Si35      -1.73650050729       6.37992098673       10.0443759613                   0                   0                   0                   0
    tauc_Si36     -0.158840961945       3.70974729479       10.1214767942                   0                   0                   0                   0
      tauc_C1    -0.0826095520253       1.82688899539       4.42145180695                   0                   0                   0                   0
      tauc_C2       2.99520935492       7.23687209917       4.41095537486                   0                   0                   0                   0
      tauc_C3      -3.22202496519       7.18529589652       4.31612090176                   0                   0                   0                   0
      tauc_C4        4.5133264482       6.38778098849       6.96680125841                   0                   0                   0                   0
      tauc_C5       1.43843158978         1.007334585       7.00298931362                   0                   0                   0                   0
      tauc_C6       7.64594093256        1.0398888203       7.07927671882                   0                   0                   0                   0
      tauc_C7     -0.142207209448       1.91737931355       9.52585385053                   0                   0                   0                   0
      tauc_C8       2.90733738934       7.29752154936       9.48993584445                   0                   0                   0                   0
      tauc_C9       -3.2788930136       7.26263300855       9.37167973243                   0                   0                   0                   0
     tauc_C10        4.5938562455       6.31504908301       1.89970428895                   0                   0                   0                   0
     tauc_C11       1.51608468505      0.913204078572       1.91867480724                   0                   0                   0                   0
     tauc_C12       7.71974518251      0.965233511899       2.00630634163                   0                   0                   0                   0
     tauc_C13      -1.65448379178       4.52873749988       4.37867932301                   0                   0                   0                   0
     tauc_C14       1.46526962625       4.56101473743       4.43169441961                   0                   0                   0                   0
     tauc_C15      -0.11167211021       7.22678401944       4.34923853528                   0                   0                   0                   0
     tauc_C16       6.07628034537       3.70615046775       7.04000052012                   0                   0                   0                   0
     tauc_C17       2.97752811432       3.69456252872        6.9864670058                   0                   0                   0                   0
     tauc_C18       4.56168980374       1.02616805462        7.0485819052                   0                   0                   0                   0
     tauc_C19      -1.72800054008       4.58415435878       9.45096815467                   0                   0                   0                   0
     tauc_C20       1.40007113585       4.61938582656       9.51173077614                   0                   0                   0                   0
     tauc_C21     -0.192189598186       7.29483489267       9.44291233623                   0                   0                   0                   0
     tauc_C22       6.15536609713       3.64443918251       1.95639031939                   0                   0                   0                   0
     tauc_C23       3.04816323219       3.61274095322       1.91441497904                   0                   0                   0                   0
     tauc_C24       4.60947486044      0.953326351511       1.96414396622                   0                   0                   0                   0
     tauc_C25        3.0068387053        1.8775030272       4.48500482474                   0                   0                   0                   0
     tauc_C26       6.13301746536        1.9026441275       4.52005635765                   0                   0                   0                   0
     tauc_C27       4.56059723559        4.5639527009       4.47380019248                   0                   0                   0                   0
     tauc_C28       1.40102577028       6.36647399152       6.91967726602                   0                   0                   0                   0
     tauc_C29      -1.69442869674       6.33542110246       6.90161603407                   0                   0                   0                   0
     tauc_C30     -0.129203611419       3.66439122929       6.94241473048                   0                   0                   0                   0
     tauc_C31       2.96466646555        1.9510243437       9.54025765271                   0                   0                   0                   0
     tauc_C32       6.05981569053       1.97023792536       9.60788425695                   0                   0                   0                   0
     tauc_C33       4.48200227729        4.6188365821       9.53839819369                   0                   0                   0                   0
     tauc_C34       1.48864331911       6.30527276894       1.84574156238                   0                   0                   0                   0
     tauc_C35      -1.63427999742       6.27411573899       1.81805126717                   0                   0                   0                   0
     tauc_C36     -0.056487258432       3.60230473774        1.8673518844                   0                   0                   0                   0


 READING ORBITAL FILE NAMES FOR LCAO
 orbital file: Si_gga_9au_100Ry_3s3p2d.orb
 orbital file: C_gga_9au_100Ry_3s3p2d.orb

                          Volume (Bohr^3) = 5167.32900504
                             Volume (A^3) = 765.718242165

 Lattice vectors: (Cartesian coordinate: in unit of a_0)
       +9.23790344848                  +0                  +0
       -4.72509295056      +8.14988667747                  +0
      -0.291835614834      +0.26760588854      +10.1705519747
 Reciprocal vectors: (Cartesian coordinate: in unit of 2 pi/a_0)
      +0.108249670023    +0.0627603515199   +0.00145479511927
                   +0     +0.122701092613   -0.00322849094084
                   +0                  -0    +0.0983230804473




 >>>>>>>>>>>>>>>>>>>>>>>>>>>>>>>>>>>>>>>>>>>>>>>>>>>>>>>>>>>>>>>>>>>>>>
 |                                                                    |
 | Reading pseudopotentials files:                                    |
 | The pseudopotential file is in UPF format. The 'NC' indicates that |
 | the type of pseudopotential is 'norm conserving'. Functional of    |
 | exchange and correlation is decided by 4 given parameters in UPF   |
 | file.  We also read in the 'core correction' if there exists.      |
 | Also we can read the valence electrons number and the maximal      |
 | angular momentum used in this pseudopotential. We also read in the |
 | trail wave function, trail atomic density and local-pseudopotential|
 | on logrithmic grid. The non-local pseudopotential projector is also|
 | read in if there is any.                                           |
 |                                                                    |
 <<<<<<<<<<<<<<<<<<<<<<<<<<<<<<<<<<<<<<<<<<<<<<<<<<<<<<<<<<<<<<<<<<<<<<




                PAO radial cut off (Bohr) = 15

 Read in pseudopotential file is Si_ONCV_PBE-1.0.upf
                     pseudopotential type = NC
          exchange-correlation functional = PBE
                 nonlocal core correction = 0
                        valence electrons = 4
                                     lmax = 1
                           number of zeta = 0
                     number of projectors = 4
                           L of projector = 0
                           L of projector = 0
                           L of projector = 1
                           L of projector = 1
                PAO radial cut off (Bohr) = 15

 Read in pseudopotential file is C_ONCV_PBE-1.0.upf
                     pseudopotential type = NC
          exchange-correlation functional = PBE
                 nonlocal core correction = 0
                        valence electrons = 4
                                     lmax = 1
                           number of zeta = 0
                     number of projectors = 4
                           L of projector = 0
                           L of projector = 0
                           L of projector = 1
                           L of projector = 1
     initial pseudo atomic orbital number = 0
                                   NLOCAL = 1584




 >>>>>>>>>>>>>>>>>>>>>>>>>>>>>>>>>>>>>>>>>>>>>>>>>>>>>>>>>>>>>>>>>>>>>>
 |                                                                    |
 | Setup plane waves of charge/potential:                             |
 | Use the energy cutoff and the lattice vectors to generate the      |
 | dimensions of FFT grid. The number of FFT grid on each processor   |
 | is 'nrxx'. The number of plane wave basis in reciprocal space is   |
 | different for charege/potential and wave functions. We also set    |
 | the 'sticks' for the parallel of FFT. The number of plane waves    |
 | is 'npw' in each processor.                                        |
 <<<<<<<<<<<<<<<<<<<<<<<<<<<<<<<<<<<<<<<<<<<<<<<<<<<<<<<<<<<<<<<<<<<<<<





 SETUP THE PLANE WAVE BASIS
 energy cutoff for charge/potential (unit:Ry) = 400
          [fft grid for charge/potential] = 120, 120, 128
                      [fft grid division] = 2, 2, 2
      [big fft grid for charge/potential] = 60, 60, 64
                                     nbxx = 14400
                                     nrxx = 115200

 SETUP PLANE WAVES FOR CHARGE/POTENTIAL
                    number of plane waves = 697999
                         number of sticks = 8557

 PARALLEL PW FOR CHARGE/POTENTIAL
     PROC   COLUMNS(POT)             PW
        1            535          43626
        2            535          43626
        3            535          43626
        4            535          43626
        5            535          43624
        6            535          43624
        7            534          43623
        8            535          43626
        9            535          43626
       10            535          43626
       11            535          43625
       12            534          43623
       13            535          43625
       14            535          43625
       15            534          43623
       16            535          43625
 --------------- sum -------------------
       16           8557         697999
                            number of |g| = 41910
                                  max |g| = 36.1824137002
                                  min |g| = 0.0626358768471

 SETUP THE ELECTRONS NUMBER
            electron number of element Si = 4
      total electron number of element Si = 144
             electron number of element C = 4
       total electron number of element C = 144
            AUTOSET number of electrons:  = 288
 DONE : SETUP UNITCELL Time : 0.119309669257 (SEC)





 >>>>>>>>>>>>>>>>>>>>>>>>>>>>>>>>>>>>>>>>>>>>>>>>>>>>>>>>>>>>>>>>>>>>>>
 |                                                                    |
 | Setup K-points                                                     |
 | We setup the k-points according to input parameters.               |
 | The reduced k-points are set according to symmetry operations.     |
 | We treat the spin as another set of k-points.                      |
 |                                                                    |
 <<<<<<<<<<<<<<<<<<<<<<<<<<<<<<<<<<<<<<<<<<<<<<<<<<<<<<<<<<<<<<<<<<<<<<





 SETUP K-POINTS
                                    nspin = 1
                   Input type of k points = Monkhorst-Pack(Gamma)
                                   nkstot = 64
                               nkstot_ibz = 36
      IBZ             DirectX             DirectY             DirectZ              Weight    ibz2bz
        1                   0                   0                   0            0.015625         0
        2                0.75                   0                   0             0.03125         1
        3                 0.5                   0                   0            0.015625         2
        4                   0                0.75                   0             0.03125         4
        5                0.75                0.75                   0             0.03125         5
        6                 0.5                0.75                   0             0.03125         6
        7                0.25                0.75                   0             0.03125         7
        8                   0                 0.5                   0            0.015625         8
        9                0.75                 0.5                   0             0.03125         9
       10                 0.5                 0.5                   0            0.015625        10
       11                   0                   0                0.75             0.03125        16
       12                0.75                   0                0.75             0.03125        17
       13                 0.5                   0                0.75             0.03125        18
       14                0.25                   0                0.75             0.03125        19
       15                   0                0.75                0.75             0.03125        20
       16                0.75                0.75                0.75             0.03125        21
       17                 0.5                0.75                0.75             0.03125        22
       18                0.25                0.75                0.75             0.03125        23
       19                   0                 0.5                0.75             0.03125        24
       20                0.75                 0.5                0.75             0.03125        25
       21                 0.5                 0.5                0.75             0.03125        26
       22                0.25                 0.5                0.75             0.03125        27
       23                   0                0.25                0.75             0.03125        28
       24                0.75                0.25                0.75             0.03125        29
       25                 0.5                0.25                0.75             0.03125        30
       26                0.25                0.25                0.75             0.03125        31
       27                   0                   0                 0.5            0.015625        32
       28                0.75                   0                 0.5             0.03125        33
       29                 0.5                   0                 0.5            0.015625        34
       30                   0                0.75                 0.5             0.03125        36
       31                0.75                0.75                 0.5             0.03125        37
       32                 0.5                0.75                 0.5             0.03125        38
       33                0.25                0.75                 0.5             0.03125        39
       34                   0                 0.5                 0.5            0.015625        40
       35                0.75                 0.5                 0.5             0.03125        41
       36                 0.5                 0.5                 0.5            0.015625        42
                               nkstot now = 36

  KPOINTS            DIRECT_X            DIRECT_Y            DIRECT_Z              WEIGHT
        1                   0                   0                   0            0.015625
        2                0.75                   0                   0             0.03125
        3                 0.5                   0                   0            0.015625
        4                   0                0.75                   0             0.03125
        5                0.75                0.75                   0             0.03125
        6                 0.5                0.75                   0             0.03125
        7                0.25                0.75                   0             0.03125
        8                   0                 0.5                   0            0.015625
        9                0.75                 0.5                   0             0.03125
       10                 0.5                 0.5                   0            0.015625
       11                   0                   0                0.75             0.03125
       12                0.75                   0                0.75             0.03125
       13                 0.5                   0                0.75             0.03125
       14                0.25                   0                0.75             0.03125
       15                   0                0.75                0.75             0.03125
       16                0.75                0.75                0.75             0.03125
       17                 0.5                0.75                0.75             0.03125
       18                0.25                0.75                0.75             0.03125
       19                   0                 0.5                0.75             0.03125
       20                0.75                 0.5                0.75             0.03125
       21                 0.5                 0.5                0.75             0.03125
       22                0.25                 0.5                0.75             0.03125
       23                   0                0.25                0.75             0.03125
       24                0.75                0.25                0.75             0.03125
       25                 0.5                0.25                0.75             0.03125
       26                0.25                0.25                0.75             0.03125
       27                   0                   0                 0.5            0.015625
       28                0.75                   0                 0.5             0.03125
       29                 0.5                   0                 0.5            0.015625
       30                   0                0.75                 0.5             0.03125
       31                0.75                0.75                 0.5             0.03125
       32                 0.5                0.75                 0.5             0.03125
       33                0.25                0.75                 0.5             0.03125
       34                   0                 0.5                 0.5            0.015625
       35                0.75                 0.5                 0.5             0.03125
       36                 0.5                 0.5                 0.5            0.015625

           k-point number in this process = 36
       minimum distributed K point number = 36

  KPOINTS         CARTESIAN_X         CARTESIAN_Y         CARTESIAN_Z              WEIGHT
        1                   0                   0                   0             0.03125
        2      0.081187252517     0.0470702636399    0.00109109633946              0.0625
        3     0.0541248350114     0.0313801757599   0.000727397559637             0.03125
        4                   0       0.09202581946   -0.00242136820563              0.0625
        5      0.081187252517        0.1390960831   -0.00133027186617              0.0625
        6     0.0541248350114       0.12340599522   -0.00169397064599              0.0625
        7     0.0270624175057       0.10771590734   -0.00205766942581              0.0625
        8                   0     0.0613505463067   -0.00161424547042             0.03125
        9      0.081187252517      0.108420809947  -0.000523149130963              0.0625
       10     0.0541248350114     0.0927307220666  -0.000886847910782             0.03125
       11                   0                   0     0.0737423103355              0.0625
       12      0.081187252517     0.0470702636399     0.0748334066749              0.0625
       13     0.0541248350114     0.0313801757599     0.0744697078951              0.0625
       14     0.0270624175057       0.01569008788     0.0741060091153              0.0625
       15                   0       0.09202581946     0.0713209421298              0.0625
       16      0.081187252517        0.1390960831     0.0724120384693              0.0625
       17     0.0541248350114       0.12340599522     0.0720483396895              0.0625
       18     0.0270624175057       0.10771590734     0.0716846409097              0.0625
       19                   0     0.0613505463067     0.0721280648651              0.0625
       20      0.081187252517      0.108420809947     0.0732191612045              0.0625
       21     0.0541248350114     0.0927307220666     0.0728554624247              0.0625
       22     0.0270624175057     0.0770406341866     0.0724917636449              0.0625
       23                   0     0.0306752731533     0.0729351876003              0.0625
       24      0.081187252517     0.0777455367933     0.0740262839397              0.0625
       25     0.0541248350114     0.0620554489133     0.0736625851599              0.0625
       26     0.0270624175057     0.0463653610333     0.0732988863801              0.0625
       27                   0                   0     0.0491615402236             0.03125
       28      0.081187252517     0.0470702636399     0.0502526365631              0.0625
       29     0.0541248350114     0.0313801757599     0.0498889377833             0.03125
       30                   0       0.09202581946      0.046740172018              0.0625
       31      0.081187252517        0.1390960831     0.0478312683575              0.0625
       32     0.0541248350114       0.12340599522     0.0474675695777              0.0625
       33     0.0270624175057       0.10771590734     0.0471038707978              0.0625
       34                   0     0.0613505463067     0.0475472947532             0.03125
       35      0.081187252517      0.108420809947     0.0486383910927              0.0625
       36     0.0541248350114     0.0927307220666     0.0482746923129             0.03125

  KPOINTS            DIRECT_X            DIRECT_Y            DIRECT_Z              WEIGHT
        1                   0                   0                   0             0.03125
        2                0.75                   0                   0              0.0625
        3                 0.5                   0                   0             0.03125
        4                   0                0.75                   0              0.0625
        5                0.75                0.75                   0              0.0625
        6                 0.5                0.75                   0              0.0625
        7                0.25                0.75                   0              0.0625
        8                   0                 0.5                   0             0.03125
        9                0.75                 0.5                   0              0.0625
       10                 0.5                 0.5                   0             0.03125
       11                   0                   0                0.75              0.0625
       12                0.75                   0                0.75              0.0625
       13                 0.5                   0                0.75              0.0625
       14                0.25                   0                0.75              0.0625
       15                   0                0.75                0.75              0.0625
       16                0.75                0.75                0.75              0.0625
       17                 0.5                0.75                0.75              0.0625
       18                0.25                0.75                0.75              0.0625
       19                   0                 0.5                0.75              0.0625
       20                0.75                 0.5                0.75              0.0625
       21                 0.5                 0.5                0.75              0.0625
       22                0.25                 0.5                0.75              0.0625
       23                   0                0.25                0.75              0.0625
       24                0.75                0.25                0.75              0.0625
       25                 0.5                0.25                0.75              0.0625
       26                0.25                0.25                0.75              0.0625
       27                   0                   0                 0.5             0.03125
       28                0.75                   0                 0.5              0.0625
       29                 0.5                   0                 0.5             0.03125
       30                   0                0.75                 0.5              0.0625
       31                0.75                0.75                 0.5              0.0625
       32                 0.5                0.75                 0.5              0.0625
       33                0.25                0.75                 0.5              0.0625
       34                   0                 0.5                 0.5             0.03125
       35                0.75                 0.5                 0.5              0.0625
       36                 0.5                 0.5                 0.5             0.03125
 DONE : INIT K-POINTS Time : 0.128036105174 (SEC)

                           occupied bands = 144
                                   NLOCAL = 1584
                                   NBANDS = 173
                                   NBANDS = 173




 >>>>>>>>>>>>>>>>>>>>>>>>>>>>>>>>>>>>>>>>>>>>>>>>>>>>>>>>>>>>>>>>>>>>>>
 |                                                                    |
 | Setup numerical orbitals:                                          |
 | This part setup: numerical atomic orbitals, non-local projectors   |
 | and neutral potential (1D). The atomic orbitals information        |
 | including the radius, angular momentum and zeta number.            |
 | The neutral potential is the sum of local part of pseudopotential  |
 | and potential given by atomic charge, they will cancel out beyond  |
 | a certain radius cutoff, because the Z/r character.                |
 |                                                                    |
 <<<<<<<<<<<<<<<<<<<<<<<<<<<<<<<<<<<<<<<<<<<<<<<<<<<<<<<<<<<<<<<<<<<<<<





 SETUP ONE DIMENSIONAL ORBITALS/POTENTIAL
                        delta k  (1/Bohr) = 0.01
                        delta r    (Bohr) = 0.01
                        dr_uniform (Bohr) = 0.001
                        rmax       (Bohr) = 30
                                    kmesh = 1005
      ORBITAL  L  N      nr      dr    RCUT  CHECK_UNIT    NEW_UNIT
            1  0  0     901    0.01       9           1           1
            2  0  1     901    0.01       9           1           1
            3  0  2     901    0.01       9           1           1
            4  1  0     901    0.01       9           1           1
            5  1  1     901    0.01       9           1           1
            6  1  2     901    0.01       9           1           1
            7  2  0     901    0.01       9           1           1
            8  2  1     901    0.01       9           1           1
      ORBITAL  L  N      nr      dr    RCUT  CHECK_UNIT    NEW_UNIT
            1  0  0     901    0.01       9           1           1
            2  0  1     901    0.01       9           1           1
            3  0  2     901    0.01       9           1           1
            4  1  0     901    0.01       9           1           1
            5  1  1     901    0.01       9           1           1
            6  1  2     901    0.01       9           1           1
            7  2  0     901    0.01       9           1           1
            8  2  1     901    0.01       9           1           1
 SET NONLOCAL PSEUDOPOTENTIAL PROJECTORS
 SET NONLOCAL PSEUDOPOTENTIAL PROJECTORS
 max number of nonlocal projetors among all species is 4

 SETUP THE TWO-CENTER INTEGRATION TABLES

 SETUP THE DIVISION OF H/S MATRIX
 divide the H&S matrix using 2D block algorithms.
                                     nb2d = 64
 parameter nb2d is too large: nb2d = 64
 reset nb2d to value 1, this set would make the program keep working but maybe get slower during diagonalization.
                  trace_loc_row dimension = 1584
                  trace_loc_col dimension = 1584
                                     nloc = 156816

 -------------------------------------------
 STEP OF MOLECULAR DYNAMICS : 0
 -------------------------------------------
              searching radius is (Bohr)) = 25.3
         searching radius unit is (Bohr)) = 1.89
1618526
                                 init_chg = atomic
 DONE : INIT SCF Time : 10.2508 (SEC)


 LCAO ALGORITHM --------------- ION=   1  ELEC=   1--------------------------------

 Density error is 0.272412105591

 LCAO ALGORITHM --------------- ION=   1  ELEC=   2--------------------------------

 Density error is 0.152299131006

 LCAO ALGORITHM --------------- ION=   1  ELEC=   3--------------------------------

 Density error is 0.0269942408809

 LCAO ALGORITHM --------------- ION=   1  ELEC=   4--------------------------------

 Density error is 0.0408390013998

 LCAO ALGORITHM --------------- ION=   1  ELEC=   5--------------------------------

 Density error is 0.0064176158495

 LCAO ALGORITHM --------------- ION=   1  ELEC=   6--------------------------------

 Density error is 0.00289794081611

 LCAO ALGORITHM --------------- ION=   1  ELEC=   7--------------------------------

 Density error is 0.00163967848808

 LCAO ALGORITHM --------------- ION=   1  ELEC=   8--------------------------------

 Density error is 0.000447092304617

 LCAO ALGORITHM --------------- ION=   1  ELEC=   9--------------------------------

 Density error is 0.000183932751824

 LCAO ALGORITHM --------------- ION=   1  ELEC=  10--------------------------------

 Density error is 0.000143557509556

 LCAO ALGORITHM --------------- ION=   1  ELEC=  11--------------------------------

 Density error is 3.67152014472e-05

 LCAO ALGORITHM --------------- ION=   1  ELEC=  12--------------------------------

 Density error is 2.34382989647e-05

 LCAO ALGORITHM --------------- ION=   1  ELEC=  13--------------------------------

 Density error is 1.17443282928e-05

 LCAO ALGORITHM --------------- ION=   1  ELEC=  14--------------------------------

 Density error is 2.68956537818e-06

 LCAO ALGORITHM --------------- ION=   1  ELEC=  15--------------------------------

 Density error is 1.24750478331e-06

 LCAO ALGORITHM --------------- ION=   1  ELEC=  16--------------------------------

 Density error is 7.11584607093e-07

 charge density convergence is achieved
 final etot is -9452.60771812 eV

 ><><><><><><><><><><><><><><><><><><><><><><><><><><><><><><><><><><><

    TOTAL-FORCE (eV/Angstrom)

 ><><><><><><><><><><><><><><><><><><><><><><><><><><><><><><><><><><><

     atom              x              y              z
      Si1          +1.5075537         +0.27339784          +1.0007257
      Si2         -0.17578202         +0.92137717          +1.3100456
      Si3          +1.3590382          +1.6806414          +2.0316188
      Si4         -0.98682171         -0.13963261         -0.94427199
      Si5         +0.25323516         -0.91867266         -0.69187574
      Si6         -0.84735695           -1.927157           -1.183418
      Si7          +1.5244333         +0.60521928          +1.1144984
      Si8         -0.50283131         +0.64932357         +0.56782639
      Si9         +0.79613054          +2.3477585          +1.4042539
     Si10          -1.1143146         +0.60223331         -0.52168208
     Si11        +0.049476212         -0.34118502         -0.80960866
     Si12         -0.86689765         -0.97315512          -1.3076671
     Si13          +1.8720934         +0.97576152          +1.3717356
     Si14        +0.095400627        +0.079248663         +0.28602544
     Si15         -0.43552471          +1.0169349         +0.42964405
     Si16         -0.54317773         -0.08622924         -0.76419775
     Si17         +0.28838271         +0.25300174          +0.4864379
     Si18        +0.040278399         -0.66816631          -1.5552007
     Si19          +1.3855886         +0.59828222          +1.4945758
     Si20          +0.4414633         +0.49708194         -0.44423643
     Si21          -0.0923286         +0.97273564         +0.74329786
     Si22         -0.98884832          -0.1505806         -0.20821974
     Si23         -0.20626077         +0.69846758          +0.3076862
     Si24         +0.10712524         -0.24850328         -0.66471514
     Si25         +0.14974003         -0.53007438         +0.38779818
     Si26        -0.078028622         -0.59286647         +0.18525341
     Si27         +0.24406016        -0.036611544         +0.26108148
     Si28         +0.27254067         +0.99105903         -0.45438366
     Si29         +0.36279568         +0.69803241          -0.1418373
     Si30       +0.0052517573         +0.25867034         -0.60054023
     Si31        -0.053646138         -0.13104208         -0.30995553
     Si32        +0.025376657         -0.48504219         +0.64772595
     Si33         -0.53199621         -0.22500998          +0.1660754
     Si34         -0.29879243          +1.3166154         -0.24689761
     Si35         -0.25413949         +0.89445825          +0.3278006
     Si36         -0.45399016         +0.65198447        +0.096792646
       C1          +1.0179891         +0.85243235         +0.34039899
       C2         -0.40535626         +0.71923834         +0.70125704
       C3         +0.90858508          +1.5671558          +1.2339898
       C4          -1.3599188         -0.55849183         -0.72673511
       C5         +0.35184204          -1.1823128         -0.43527736
       C6          -1.4884653          -1.8519413          -1.3521355
       C7         +0.50526864         +0.14209506        +0.059886279
       C8        -0.066506857         +0.76140072         +0.87925641
       C9         +0.40908353          +1.1861932          +1.7860826
      C10          -1.3355861          -1.1542909          -1.5101588
      C11         +0.47862525           -0.883852         -0.62271919
      C12          -1.1465163            -2.10729          -1.5369668
      C13         +0.94815227        -0.084980689         +0.44452204
      C14         -0.34097957         -0.69445584         -0.48172876
      C15        -0.071913981          +0.6449381           +1.357207
      C16           -1.462823          -0.7406496          -1.1518659
      C17        -0.039829775       -0.0012359365        +0.092963865
      C18         -0.30121303          -1.1404917          -0.3285142
      C19          +1.0772913         +0.37760958         +0.26281015
      C20         -0.43241136         -0.55332103        -0.083932536
      C21         +0.10572971         +0.62958529         +0.81218831
      C22          -1.6374345           -1.405361          -1.3762886
      C23          +0.2855471         -0.14394557         -0.35347522
      C24         +0.59240936           -1.309223          -0.6491605
      C25         +0.37519867         -0.56504577         -0.40917874
      C26         -0.44110798         -0.66480035        -0.090446984
      C27         -0.31794681         -0.40610869          -0.1602725
      C28         +0.19090378         +0.12555186         +0.53237823
      C29         +0.40129483         +0.61416286         -0.49035687
      C30        +0.096469886        +0.077325751         +0.35705509
      C31         -0.37848638         -0.69839572          +0.2000362
      C32         -0.44803944         -0.72019608         -0.31047364
      C33         -0.17649479         -0.12233489        +0.043448563
      C34         +0.30520734         -0.28237575          -0.1146084
      C35         +0.95879074         +0.15750329         -0.56404765
      C36         +0.49341471         -0.11244856         -0.12732897


 ><><><><><><><><><><><><><><><><><><><><><><><><><><><><><><><><><><><

 TOTAL-STRESS (KBAR)

 ><><><><><><><><><><><><><><><><><><><><><><><><><><><><><><><><><><><

              +46.002451             +37.917418             +45.937288
              +37.917418             -46.600551             -32.806531
              +45.937288             -32.806531              +0.384707
 TOTAL-PRESSURE: -0.071131 KBAR


 ------------------------------------------------------------------------------------------------
 Energy              Potential           Kinetic             Temperature         Pressure (KBAR)     
 -347.37343          -347.3768           +0.0033726584       +10                 +0.056887529        
 ------------------------------------------------------------------------------------------------

output Pressure for check!
Virtual Pressure is +0.056887529 Kbar 
Virial Term is -0.071131075 Kbar 
Kenetic Term is +0.1280186 Kbar 


 ><><><><><><><><><><><><><><><><><><><><><><><><><><><><><><><><><><><

 MD STRESS (KBAR)

 ><><><><><><><><><><><><><><><><><><><><><><><><><><><><><><><><><><><

+46.120735     +37.895051     +45.93833      
+37.895051     -46.478798     -32.826329     
+45.93833      -32.826329     +0.52872606    



 -------------------------------------------
 STEP OF MOLECULAR DYNAMICS : 1
 -------------------------------------------
 NEW-OLD atomic charge density approx. for the potential !
 searching radius is (Bohr))              = +25.29
 searching radius unit is (Bohr))         = +1.8897261
+1618970
 DONE : INIT SCF Time : +1721.1 (SEC)


 LCAO ALGORITHM --------------- ION=+2    ELEC=+1  --------------------------------

 Density error is +0.000432195332787

 LCAO ALGORITHM --------------- ION=+2    ELEC=+2  --------------------------------

 Density error is +0.000237794803976

 LCAO ALGORITHM --------------- ION=+2    ELEC=+3  --------------------------------

 Density error is +0.000250870505905

 LCAO ALGORITHM --------------- ION=+2    ELEC=+4  --------------------------------

 Density error is +6.08845723422e-05

 LCAO ALGORITHM --------------- ION=+2    ELEC=+5  --------------------------------

 Density error is +4.69282031728e-05

 LCAO ALGORITHM --------------- ION=+2    ELEC=+6  --------------------------------

 Density error is +1.69893440386e-05

 LCAO ALGORITHM --------------- ION=+2    ELEC=+7  --------------------------------

 Density error is +5.73699449083e-06

 LCAO ALGORITHM --------------- ION=+2    ELEC=+8  --------------------------------

 Density error is +1.13580055237e-06

 LCAO ALGORITHM --------------- ION=+2    ELEC=+9  --------------------------------

 Density error is +5.17585827682e-07

 charge density convergence is achieved
 final etot is -9452.63762985 eV

 ><><><><><><><><><><><><><><><><><><><><><><><><><><><><><><><><><><><

    TOTAL-FORCE (eV/Angstrom)

 ><><><><><><><><><><><><><><><><><><><><><><><><><><><><><><><><><><><

 atom    x              y              z              
 Si1     +1.4622903          +0.27283891         +0.95963385         
 Si2     -0.17197794         +0.93194476         +1.2951511          
 Si3     +1.3356155          +1.6334355          +2.0142045          
 Si4     -1.0080954          -0.10017049         -0.94042722         
 Si5     +0.24944059         -0.92374304         -0.69625357         
 Si6     -0.86862266         -1.9331034          -1.1734012          
 Si7     +1.505892           +0.59775047         +1.1093897          
 Si8     -0.51675306         +0.63765175         +0.56827288         
 Si9     +0.7723746          +2.3345881          +1.4139039          
 Si10    -1.096942           +0.58397712         -0.53509037         
 Si11    +0.048327186        -0.35869325         -0.80552601         
 Si12    -0.86230779         -0.95708604         -1.3055927          
 Si13    +1.8308121          +0.95667835         +1.3513845          
 Si14    +0.093473513        +0.072907985        +0.26579522         
 Si15    -0.43400193         +1.0282378          +0.45431961         
 Si16    -0.52104917         -0.072199828        -0.78439337         
 Si17    +0.29589475         +0.23329214         +0.45819707         
 Si18    +0.039109492        -0.67676375         -1.5532864          
 Si19    +1.3599453          +0.58123466         +1.4858828          
 Si20    +0.42236393         +0.48843371         -0.42705375         
 Si21    -0.075981243        +0.98955852         +0.76208268         
 Si22    -1.0125613          -0.16028195         -0.19331801         
 Si23    -0.20683782         +0.689513           +0.31995788         
 Si24    +0.08092659         -0.25552433         -0.65243146         
 Si25    +0.16179969         -0.53991258         +0.38908097         
 Si26    -0.075847218        -0.61813458         +0.16793904         
 Si27    +0.24209791         -0.037501065        +0.25520144         
 Si28    +0.28788613         +0.97345207         -0.44293745         
 Si29    +0.36476226         +0.71863783         -0.14771251         
 Si30    +0.015728415        +0.25452783         -0.59822513         
 Si31    -0.070859624        -0.11750858         -0.32672172         
 Si32    +0.065066093        -0.49840706         +0.63182195         
 Si33    -0.53883082         -0.20590308         +0.13392691         
 Si34    -0.30699121         +1.3170965          -0.21724511         
 Si35    -0.26583911         +0.89500751         +0.34887034         
 Si36    -0.46781212         +0.63381005         +0.1045373          
 C1      +1.0434743          +0.85589835         +0.35087846         
 C2      -0.39602637         +0.70682449         +0.72244168         
 C3      +0.91717229         +1.5701402          +1.2312152          
 C4      -1.3468203          -0.57603142         -0.71635741         
 C5      +0.3736811          -1.1693247          -0.43411408         
 C6      -1.4899434          -1.8314             -1.3435564          
 C7      +0.49729643         +0.13499576         +0.069326594        
 C8      -0.045880017        +0.76921703         +0.86035611         
 C9      +0.37777399         +1.1858798          +1.7789661          
 C10     -1.3077569          -1.1149588          -1.4866725          
 C11     +0.46453968         -0.86889645         -0.62748605         
 C12     -1.1021957          -2.0922515          -1.510846           
 C13     +0.91675715         -0.11234869         +0.45444155         
 C14     -0.35421149         -0.68479246         -0.44391247         
 C15     -0.079818661        +0.64926576         +1.3300507          
 C16     -1.443883           -0.71246814         -1.1124196          
 C17     -0.019209004        -0.011133541        +0.12488769         
 C18     -0.32083755         -1.1494094          -0.33448334         
 C19     +1.0991096          +0.37776687         +0.25259253         
 C20     -0.42077582         -0.53178688         -0.11540786         
 C21     +0.10843647         +0.6351798          +0.79769067         
 C22     -1.5804973          -1.3567688          -1.3620953          
 C23     +0.28445212         -0.14481972         -0.36110536         
 C24     +0.57886152         -1.3012329          -0.64743916         
 C25     +0.35994195         -0.54763044         -0.40724462         
 C26     -0.42267708         -0.66094127         -0.081406338        
 C27     -0.32511952         -0.43567071         -0.16018234         
 C28     +0.20266679         +0.11846629         +0.51122547         
 C29     +0.3919923          +0.59814094         -0.50348241         
 C30     +0.10374075         +0.093037318        +0.36343456         
 C31     -0.35740984         -0.69192929         +0.21076314         
 C32     -0.4357682          -0.71682238         -0.32072355         
 C33     -0.15892298         -0.093876035        +0.060122443        
 C34     +0.31481729         -0.30246128         -0.15300085         
 C35     +0.95069156         +0.16607307         -0.57550448         
 C36     +0.48985173         -0.12357267         -0.11089031         


 ><><><><><><><><><><><><><><><><><><><><><><><><><><><><><><><><><><><

 TOTAL-STRESS (KBAR)

 ><><><><><><><><><><><><><><><><><><><><><><><><><><><><><><><><><><><

 +45.702934             +37.772172             +45.800596             
 +37.772172             -46.700978             -32.898338             
 +45.800596             -32.898338             +0.422266              
 TOTAL-PRESSURE: -0.191926 KBAR


 ------------------------------------------------------------------------------------------------
 Energy              Potential           Kinetic             Temperature         Pressure (KBAR)     
 -347.37035          -347.3779           +0.0075474234       +22.378262          +0.094557475        
 ------------------------------------------------------------------------------------------------

output Pressure for check!
Virtual Pressure is +0.094557475 Kbar 
Virial Term is -0.19192591 Kbar 
Kenetic Term is +0.28648339 Kbar 


 ><><><><><><><><><><><><><><><><><><><><><><><><><><><><><><><><><><><

 MD STRESS (KBAR)

 ><><><><><><><><><><><><><><><><><><><><><><><><><><><><><><><><><><><

+45.965043     +37.786296     +45.817235     
+37.786296     -46.326437     -32.884571     
+45.817235     -32.884571     +0.64506677    



 -------------------------------------------
 STEP OF MOLECULAR DYNAMICS : 2
 -------------------------------------------
 first order charge density extrapolation !
 searching radius is (Bohr))              = +25.29
 searching radius unit is (Bohr))         = +1.8897261
+1619528
 DONE : INIT SCF Time : +2723.73 (SEC)


 LCAO ALGORITHM --------------- ION=+3    ELEC=+1  --------------------------------

 Density error is +0.00156345837282

 LCAO ALGORITHM --------------- ION=+3    ELEC=+2  --------------------------------

 Density error is +0.000978173789517

 LCAO ALGORITHM --------------- ION=+3    ELEC=+3  --------------------------------

 Density error is +0.000843650842313

 LCAO ALGORITHM --------------- ION=+3    ELEC=+4  --------------------------------

 Density error is +0.000228764023453

 LCAO ALGORITHM --------------- ION=+3    ELEC=+5  --------------------------------

 Density error is +0.000165731189291

 LCAO ALGORITHM --------------- ION=+3    ELEC=+6  --------------------------------

 Density error is +5.74863728423e-05

 LCAO ALGORITHM --------------- ION=+3    ELEC=+7  --------------------------------

 Density error is +2.57414285623e-05

 LCAO ALGORITHM --------------- ION=+3    ELEC=+8  --------------------------------

 Density error is +5.68891355905e-06

 LCAO ALGORITHM --------------- ION=+3    ELEC=+9  --------------------------------

 Density error is +2.68711567676e-06

 LCAO ALGORITHM --------------- ION=+3    ELEC=+10 --------------------------------

 Density error is +1.17748199831e-06

 LCAO ALGORITHM --------------- ION=+3    ELEC=+11 --------------------------------

 Density error is +5.26483871291e-07

 charge density convergence is achieved
 final etot is -9452.689324 eV

 ><><><><><><><><><><><><><><><><><><><><><><><><><><><><><><><><><><><

    TOTAL-FORCE (eV/Angstrom)

 ><><><><><><><><><><><><><><><><><><><><><><><><><><><><><><><><><><><

 atom    x              y              z              
 Si1     +1.4084724          +0.31021315         +1.0048415          
 Si2     -0.16728787         +0.91145185         +1.2687644          
 Si3     +1.3297209          +1.638185           +1.9922644          
 Si4     -0.99922918         -0.087561587        -0.99881192         
 Si5     +0.21477152         -0.95677599         -0.65258347         
 Si6     -0.90657573         -1.9143192          -1.2265745          
 Si7     +1.4765922          +0.59921105         +1.053006           
 Si8     -0.54134162         +0.58400142         +0.54382521         
 Si9     +0.69713417         +2.2729661          +1.3859996          
 Si10    -1.0706839          +0.52114906         -0.50129446         
 Si11    -0.016052785        -0.39319864         -0.82274255         
 Si12    -0.89807826         -0.94549591         -1.2608059          
 Si13    +1.810693           +0.94470036         +1.3216986          
 Si14    +0.0143038          +0.024664544        +0.23080648         
 Si15    -0.44158            +0.9966779          +0.47435092         
 Si16    -0.57147238         -0.12916159         -0.73170527         
 Si17    +0.29895999         +0.36539713         +0.42518469         
 Si18    -0.0020253067       -0.72178371         -1.5536608          
 Si19    +1.3427204          +0.6060941          +1.4701271          
 Si20    +0.4892558          +0.46365685         -0.44071393         
 Si21    -0.063883568        +0.94024686         +0.78206883         
 Si22    -0.92789685         -0.10721036         -0.19691046         
 Si23    -0.15976444         +0.64993422         +0.24277683         
 Si24    +0.056960391        -0.28386609         -0.6640023          
 Si25    +0.14447845         -0.64785639         +0.416768           
 Si26    -0.014337948        -0.61439902         +0.12553863         
 Si27    +0.29698142         +0.024443635        +0.2093554          
 Si28    +0.24840465         +0.95770991         -0.38644258         
 Si29    +0.33716298         +0.67562562         -0.1562523          
 Si30    -0.043038371        +0.22157054         -0.58963005         
 Si31    -0.061769526        -0.11127601         -0.28788502         
 Si32    +0.014919303        -0.54287986         +0.61630745         
 Si33    -0.60619446         -0.18738948         +0.18505275         
 Si34    -0.355088           +1.2806075          -0.27204727         
 Si35    -0.36525225         +0.86809793         +0.2803208          
 Si36    -0.53824412         +0.66245816         +0.086746001        
 C1      +1.0280481          +0.86613463         +0.32360448         
 C2      -0.31229315         +0.7141707          +0.73636588         
 C3      +0.89196546         +1.5201839          +1.2606569          
 C4      -1.2755394          -0.55385068         -0.61801588         
 C5      +0.38106604         -1.0743276          -0.45761476         
 C6      -1.4639218          -1.7829664          -1.3044671          
 C7      +0.59405982         +0.11285515         +0.068481793        
 C8      -0.011275358        +0.83133775         +0.86426559         
 C9      +0.45868317         +1.1265676          +1.7782919          
 C10     -1.3634488          -1.1681817          -1.5088956          
 C11     +0.55941984         -0.85060183         -0.61837726         
 C12     -1.1526818          -2.077928           -1.5465622          
 C13     +0.98699038         -0.046798425        +0.39158638         
 C14     -0.28241738         -0.72721901         -0.48539641         
 C15     -0.076785141        +0.68198203         +1.2253705          
 C16     -1.3422885          -0.75219943         -1.151644           
 C17     -0.06743554         -0.084169693        +0.19566009         
 C18     -0.25830112         -1.0586466          -0.26266731         
 C19     +1.0474631          +0.41150479         +0.31661441         
 C20     -0.35461123         -0.58322839         -0.021169534        
 C21     +0.18085448         +0.69989738         +0.76513943         
 C22     -1.5911348          -1.4113432          -1.2617433          
 C23     +0.23417972         -0.026093991        -0.34793027         
 C24     +0.54813264         -1.2661933          -0.59533161         
 C25     +0.41561216         -0.59668604         -0.4531007          
 C26     -0.35253015         -0.56201971         -0.056962767        
 C27     -0.3824578          -0.46887268         -0.14355759         
 C28     +0.13073222         +0.2257604          +0.49180006         
 C29     +0.42679762         +0.56734456         -0.49947937         
 C30     +0.11618764         +0.01930752         +0.33547889         
 C31     -0.32283615         -0.5673178          +0.15037351         
 C32     -0.46914486         -0.77326965         -0.35306442         
 C33     -0.25244829         -0.038130666        +0.00030181882      
 C34     +0.36504518         -0.32492474         -0.078040538        
 C35     +0.94313388         +0.21979787         -0.47648585         
 C36     +0.59144506         -0.077763648        -0.037226133        


 ><><><><><><><><><><><><><><><><><><><><><><><><><><><><><><><><><><><

 TOTAL-STRESS (KBAR)

 ><><><><><><><><><><><><><><><><><><><><><><><><><><><><><><><><><><><

 +45.246089             +37.909624             +45.321107             
 +37.909624             -47.036247             -33.131110             
 +45.321107             -33.131110             +0.666210              
 TOTAL-PRESSURE: -0.374649 KBAR


 ------------------------------------------------------------------------------------------------
 Energy              Potential           Kinetic             Temperature         Pressure (KBAR)     
 -347.36098          -347.3798           +0.018822105        +55.807919          +0.33979594         
 ------------------------------------------------------------------------------------------------

output Pressure for check!
Virtual Pressure is +0.33979594 Kbar 
Virial Term is -0.37464925 Kbar 
Kenetic Term is +0.71444519 Kbar 


 ><><><><><><><><><><><><><><><><><><><><><><><><><><><><><><><><><><><

 MD STRESS (KBAR)

 ><><><><><><><><><><><><><><><><><><><><><><><><><><><><><><><><><><><

+46.049812     +37.915652     +45.344466     
+37.915652     -46.339519     -33.22626      
+45.344466     -33.22626      +1.309095      



 -------------------------------------------
 STEP OF MOLECULAR DYNAMICS : 3
 -------------------------------------------
 second order charge density extrapolation !
 searching radius is (Bohr))              = +25.29
 searching radius unit is (Bohr))         = +1.8897261
+1618592
 DONE : INIT SCF Time : +3921.88 (SEC)


 LCAO ALGORITHM --------------- ION=+4    ELEC=+1  --------------------------------

 Density error is +0.00183851822721

 LCAO ALGORITHM --------------- ION=+4    ELEC=+2  --------------------------------

 Density error is +0.00121155939549

 LCAO ALGORITHM --------------- ION=+4    ELEC=+3  --------------------------------

 Density error is +0.0011904576397

 LCAO ALGORITHM --------------- ION=+4    ELEC=+4  --------------------------------

 Density error is +0.000338094108029

 LCAO ALGORITHM --------------- ION=+4    ELEC=+5  --------------------------------

 Density error is +0.000170685729647

 LCAO ALGORITHM --------------- ION=+4    ELEC=+6  --------------------------------

 Density error is +5.95645031017e-05

 LCAO ALGORITHM --------------- ION=+4    ELEC=+7  --------------------------------

 Density error is +2.74059415853e-05

 LCAO ALGORITHM --------------- ION=+4    ELEC=+8  --------------------------------

 Density error is +6.66463529907e-06

 LCAO ALGORITHM --------------- ION=+4    ELEC=+9  --------------------------------

 Density error is +2.34762799021e-06

 LCAO ALGORITHM --------------- ION=+4    ELEC=+10 --------------------------------

 Density error is +9.37716912359e-07

 charge density convergence is achieved
 final etot is -9452.67564834 eV

 ><><><><><><><><><><><><><><><><><><><><><><><><><><><><><><><><><><><

    TOTAL-FORCE (eV/Angstrom)

 ><><><><><><><><><><><><><><><><><><><><><><><><><><><><><><><><><><><

 atom    x              y              z              
 Si1     +1.3824991          +0.47206413         +0.96557552         
 Si2     -0.24905559         +0.92901438         +1.1848774          
 Si3     +1.296145           +1.6484907          +1.9508065          
 Si4     -0.93611514         -0.097623706        -1.0303048          
 Si5     +0.1499786          -1.056904           -0.65443044         
 Si6     -0.87516617         -1.9330046          -1.1945033          
 Si7     +1.541369           +0.56655617         +1.0651061          
 Si8     -0.45747213         +0.52767868         +0.4821037          
 Si9     +0.76769917         +2.2566564          +1.3291416          
 Si10    -1.0583788          +0.49188949         -0.54444385         
 Si11    -0.098076506        -0.34872369         -0.830084           
 Si12    -0.86232904         -0.91543565         -1.2526842          
 Si13    +1.8340151          +0.91558249         +1.3962822          
 Si14    -0.087430083        -0.028798227        +0.14222977         
 Si15    -0.40047174         +1.0270406          +0.50217721         
 Si16    -0.69013259         -0.028268735        -0.69337681         
 Si17    +0.3201977          +0.34922288         +0.3208585          
 Si18    -0.031422295        -0.70822162         -1.6295906          
 Si19    +1.1833499          +0.55249127         +1.520973           
 Si20    +0.51961431         +0.5948424          -0.29565831         
 Si21    -0.024094129        +0.95220004         +0.80857914         
 Si22    -0.97143613         -0.22992029         -0.16991192         
 Si23    -0.1693978          +0.74611932         +0.33986486         
 Si24    +0.078516661        -0.30935208         -0.56718554         
 Si25    +0.15285904         -0.55809787         +0.36218441         
 Si26    -0.062923604        -0.54170218         +0.064100529        
 Si27    +0.22980302         +0.00081694308      +0.20066616         
 Si28    +0.12893863         +0.92959106         -0.33226457         
 Si29    +0.26057635         +0.58442501         -0.25752215         
 Si30    -0.14714884         +0.29611942         -0.63022554         
 Si31    -0.16934778         -0.055153237        -0.20436059         
 Si32    +0.10501449         -0.59388509         +0.62904214         
 Si33    -0.56554322         -0.094170328        +0.26986107         
 Si34    -0.42531235         +1.2494133          -0.15343766         
 Si35    -0.40938825         +0.81082689         +0.30284189         
 Si36    -0.57944546         +0.64678386         +0.17197551         
 C1      +1.0070245          +0.86872593         +0.33121783         
 C2      -0.21361787         +0.80375869         +0.73176651         
 C3      +0.92955415         +1.4600212          +1.3474353          
 C4      -1.4174489          -0.56855609         -0.54994888         
 C5      +0.34649128         -1.0217439          -0.40706062         
 C6      -1.5889002          -1.7924569          -1.2576011          
 C7      +0.68955582         +0.070139421        +0.096664245        
 C8      +0.07896447         +0.84899495         +0.89935026         
 C9      +0.49666271         +1.111473           +1.8746606          
 C10     -1.3169452          -1.0646749          -1.478591           
 C11     +0.62008591         -0.94290924         -0.6873429          
 C12     -1.1918016          -2.200727           -1.569792           
 C13     +1.1152861          +0.094010521        +0.37412475         
 C14     -0.21047486         -0.81296965         -0.34068194         
 C15     -0.047516615        +0.6915892          +1.1753088          
 C16     -1.2939913          -0.71619077         -1.1211985          
 C17     -0.15064649         -0.1334061          +0.10020183         
 C18     -0.17822411         -1.0988614          -0.23097957         
 C19     +1.1064967          +0.56897875         +0.21264609         
 C20     -0.3141222          -0.62708205         -0.17844094         
 C21     +0.10593939         +0.67266368         +0.65619843         
 C22     -1.5870136          -1.4369076          -1.2657141          
 C23     +0.23299504         -0.078821134        -0.37427652         
 C24     +0.64470171         -1.2880527          -0.61660197         
 C25     +0.51629755         -0.4566504          -0.34509165         
 C26     -0.42070585         -0.67495466         -0.0948961          
 C27     -0.31616487         -0.52985751         -0.078502889        
 C28     +0.19448576         +0.13930869         +0.53429521         
 C29     +0.38467116         +0.64735702         -0.39515725         
 C30     +0.20160101         -0.041179748        +0.20816315         
 C31     -0.27263033         -0.59571409         +0.028423447        
 C32     -0.57817852         -0.63808221         -0.3287773          
 C33     -0.26442323         -0.074612178        -0.12015548         
 C34     +0.45541345         -0.30337708         -0.12122464         
 C35     +0.83440714         +0.18691275         -0.53843895         
 C36     +0.72168338         -0.11471047         -0.039245163        


 ><><><><><><><><><><><><><><><><><><><><><><><><><><><><><><><><><><><

 TOTAL-STRESS (KBAR)

 ><><><><><><><><><><><><><><><><><><><><><><><><><><><><><><><><><><><

 +45.917633             +38.450388             +44.949274             
 +38.450388             -47.376989             -32.999901             
 +44.949274             -32.999901             +0.627837              
 TOTAL-PRESSURE: -0.277173 KBAR


 ------------------------------------------------------------------------------------------------
 Energy              Potential           Kinetic             Temperature         Pressure (KBAR)     
 -347.35522          -347.3793           +0.02407335         +71.377965          +0.63659765         
 ------------------------------------------------------------------------------------------------

output Pressure for check!
Virtual Pressure is +0.63659765 Kbar 
Virial Term is -0.2771731 Kbar 
Kenetic Term is +0.91377075 Kbar 


 ><><><><><><><><><><><><><><><><><><><><><><><><><><><><><><><><><><><

 MD STRESS (KBAR)

 ><><><><><><><><><><><><><><><><><><><><><><><><><><><><><><><><><><><

+46.764464     +38.169767     +44.836507     
+38.169767     -46.331621     -32.968335     
+44.836507     -32.968335     +1.4769494     



 -------------------------------------------
 STEP OF MOLECULAR DYNAMICS : 4
 -------------------------------------------
 second order charge density extrapolation !
 searching radius is (Bohr))              = +25.29
 searching radius unit is (Bohr))         = +1.8897261
+1618702
 DONE : INIT SCF Time : +5025.97 (SEC)


 LCAO ALGORITHM --------------- ION=+5    ELEC=+1  --------------------------------

 Density error is +0.00243396358762

 LCAO ALGORITHM --------------- ION=+5    ELEC=+2  --------------------------------

 Density error is +0.001443766174

 LCAO ALGORITHM --------------- ION=+5    ELEC=+3  --------------------------------

 Density error is +0.00135557860436

 LCAO ALGORITHM --------------- ION=+5    ELEC=+4  --------------------------------

 Density error is +0.000341903843967

 LCAO ALGORITHM --------------- ION=+5    ELEC=+5  --------------------------------

 Density error is +0.00022723373229

 LCAO ALGORITHM --------------- ION=+5    ELEC=+6  --------------------------------

 Density error is +9.93494488465e-05

 LCAO ALGORITHM --------------- ION=+5    ELEC=+7  --------------------------------

 Density error is +4.1966149489e-05

 LCAO ALGORITHM --------------- ION=+5    ELEC=+8  --------------------------------

 Density error is +7.6932896052e-06

 LCAO ALGORITHM --------------- ION=+5    ELEC=+9  --------------------------------

 Density error is +4.32895188063e-06

 LCAO ALGORITHM --------------- ION=+5    ELEC=+10 --------------------------------

 Density error is +1.85227674943e-06

 LCAO ALGORITHM --------------- ION=+5    ELEC=+11 --------------------------------

 Density error is +7.64113718687e-07

 charge density convergence is achieved
 final etot is -9452.71897938 eV

 ><><><><><><><><><><><><><><><><><><><><><><><><><><><><><><><><><><><

    TOTAL-FORCE (eV/Angstrom)

 ><><><><><><><><><><><><><><><><><><><><><><><><><><><><><><><><><><><

 atom    x              y              z              
 Si1     +1.3603519          +0.41977713         +0.91899292         
 Si2     -0.042715975        +0.87205953         +1.2361303          
 Si3     +1.3642957          +1.6818564          +1.980237           
 Si4     -0.87191083         -0.076378731        -0.97971723         
 Si5     +0.13439805         -1.0886897          -0.64162386         
 Si6     -0.76612857         -1.9921992          -1.3030753          
 Si7     +1.5389489          +0.5731841          +1.1315134          
 Si8     -0.33302501         +0.42193907         +0.5396323          
 Si9     +0.6235586          +2.2773001          +1.3035136          
 Si10    -1.0717161          +0.46574384         -0.51545998         
 Si11    -0.081165745        -0.31222454         -0.81567195         
 Si12    -0.9239143          -0.93999352         -1.1730001          
 Si13    +1.6699374          +0.91185853         +1.427836           
 Si14    -0.054553023        -0.037958087        +0.28339072         
 Si15    -0.37619708         +1.0226943          +0.64787853         
 Si16    -0.78805549         +0.010719229        -0.75108858         
 Si17    +0.28810613         +0.33523431         +0.2851862          
 Si18    +0.068220582        -0.7901705          -1.7060019          
 Si19    +1.3032228          +0.49652488         +1.5496973          
 Si20    +0.45106427         +0.54558278         -0.32627121         
 Si21    +0.025191391        +0.88134623         +0.75742637         
 Si22    -1.0052388          -0.23214154         -0.096009441        
 Si23    -0.30708065         +0.8798696          +0.30650052         
 Si24    +0.031047299        -0.2827205          -0.59955334         
 Si25    +0.23827368         -0.58061544         +0.22312208         
 Si26    +0.034737388        -0.57078523         +0.041313167        
 Si27    +0.27398928         +0.10688838         +0.073069944        
 Si28    +0.11154062         +1.0789804          -0.32183934         
 Si29    +0.29034992         +0.72919133         -0.19107463         
 Si30    -0.14807544         +0.37009992         -0.49173875         
 Si31    -0.16462429         -0.16412278         -0.30695627         
 Si32    -0.011646363        -0.62519281         +0.68353647         
 Si33    -0.60531102         +0.025573673        +0.29196906         
 Si34    -0.45544723         +1.2027066          -0.15808298         
 Si35    -0.38602111         +0.82038084         +0.31957691         
 Si36    -0.44484272         +0.59586892         +0.084635274        
 C1      +1.0677713          +0.76717183         +0.39794511         
 C2      -0.34003536         +0.84281314         +0.70984102         
 C3      +0.9111967          +1.482427           +1.2113632          
 C4      -1.526513           -0.71085814         -0.4356187          
 C5      +0.49131089         -0.88879945         -0.4754628          
 C6      -1.6978105          -1.6240824          -1.2123086          
 C7      +0.73812402         +0.16035044         +0.0052769748       
 C8      +0.06704452         +0.9384014          +0.83022293         
 C9      +0.53717003         +1.0920611          +1.817955           
 C10     -1.464679           -1.0792452          -1.3871199          
[...]
 C16     -1.1428939          -1.0744406          -1.2587006          
 C17     +0.1493126          +0.21689807         +0.27936039         
 C18     -0.20593354         -0.83870996         +0.45761124         
 C19     +1.3202985          +0.61454457         +0.094415353        
 C20     -0.154236           -0.74037155         +0.26892043         
 C21     +0.1323733          +0.89726402         +0.45579637         
 C22     -1.7451113          -1.3485189          -1.1761234          
 C23     -0.022604493        -0.043981952        -0.017171543        
 C24     -0.084232291        -1.1657425          -1.0434312          
 C25     +0.15660455         -0.53742939         -0.31959758         
 C26     -0.76196219         -0.27734729         +0.16123015         
 C27     -0.80808994         -0.71043566         +0.12023404         
 C28     +0.1303475          +0.2713168          -0.10043859         
 C29     +0.39667039         +0.36184554         -0.46707934         
 C30     -0.073212617        -0.19368956         +0.29983366         
 C31     -0.20958889         -0.78431729         +0.46619835         
 C32     -0.23755164         -0.45523444         -0.26688889         
 C33     -0.42303565         +0.080688823        -0.015560051        
 C34     +0.32053951         -0.1452363          +0.010244568        
 C35     +0.80317504         +0.98088648         -0.83059578         
 C36     +0.40057948         -0.032714289        +0.32205322         


 ><><><><><><><><><><><><><><><><><><><><><><><><><><><><><><><><><><><

 TOTAL-STRESS (KBAR)

 ><><><><><><><><><><><><><><><><><><><><><><><><><><><><><><><><><><><

 +42.064830             +40.094489             +45.336103             
 +40.094489             -47.068710             -34.436918             
 +45.336103             -34.436918             +3.710242              
 TOTAL-PRESSURE: -0.431213 KBAR


 ------------------------------------------------------------------------------------------------
 Energy              Potential           Kinetic             Temperature         Pressure (KBAR)     
 -347.30394          -347.3821           +0.0781603          +231.74686          +2.5355782          
 ------------------------------------------------------------------------------------------------

output Pressure for check!
Virtual Pressure is +2.5355782 Kbar 
Virial Term is -0.43121276 Kbar 
Kenetic Term is +2.966791 Kbar 


 ><><><><><><><><><><><><><><><><><><><><><><><><><><><><><><><><><><><

 MD STRESS (KBAR)

 ><><><><><><><><><><><><><><><><><><><><><><><><><><><><><><><><><><><

+44.582575     +39.964559     +45.85168      
+39.964559     -44.113411     -34.628689     
+45.85168      -34.628689     +7.1375702     



 -------------------------------------------
 STEP OF MOLECULAR DYNAMICS : 10
 -------------------------------------------
 second order charge density extrapolation !
 searching radius is (Bohr))              = +25.29
 searching radius unit is (Bohr))         = +1.8897261
+1620018
 DONE : INIT SCF Time : +12453.2 (SEC)


 LCAO ALGORITHM --------------- ION=+11   ELEC=+1  --------------------------------

 Density error is +0.00358786452879

 LCAO ALGORITHM --------------- ION=+11   ELEC=+2  --------------------------------

 Density error is +0.00213168164373

 LCAO ALGORITHM --------------- ION=+11   ELEC=+3  --------------------------------

 Density error is +0.00193968802649

 LCAO ALGORITHM --------------- ION=+11   ELEC=+4  --------------------------------

 Density error is +0.000542941437594

 LCAO ALGORITHM --------------- ION=+11   ELEC=+5  --------------------------------

 Density error is +0.00038234312717

 LCAO ALGORITHM --------------- ION=+11   ELEC=+6  --------------------------------

 Density error is +0.000135088204513

 LCAO ALGORITHM --------------- ION=+11   ELEC=+7  --------------------------------

 Density error is +5.81977653739e-05

 LCAO ALGORITHM --------------- ION=+11   ELEC=+8  --------------------------------

 Density error is +1.00423588123e-05

 LCAO ALGORITHM --------------- ION=+11   ELEC=+9  --------------------------------

 Density error is +4.64124191961e-06

 LCAO ALGORITHM --------------- ION=+11   ELEC=+10 --------------------------------

 Density error is +2.4585559295e-06

 LCAO ALGORITHM --------------- ION=+11   ELEC=+11 --------------------------------

 Density error is +1.21379661686e-06

 LCAO ALGORITHM --------------- ION=+11   ELEC=+12 --------------------------------

 Density error is +3.5991590079e-07

 charge density convergence is achieved
 final etot is -9452.80977899 eV

 ><><><><><><><><><><><><><><><><><><><><><><><><><><><><><><><><><><><

    TOTAL-FORCE (eV/Angstrom)

 ><><><><><><><><><><><><><><><><><><><><><><><><><><><><><><><><><><><

 atom    x              y              z              
 Si1     +0.97295967         -0.023237067        +0.81022995         
 Si2     -0.45678662         +0.87017689         +1.0075911          
 Si3     +1.463244           +1.5925366          +2.1002861          
 Si4     -0.53855457         +0.24464626         -1.1259488          
 Si5     +0.43570307         -0.86487122         -0.87428629         
 Si6     -0.517189           -2.1445888          -1.6513161          
 Si7     +1.3041743          +0.55684523         +0.72210198         
 Si8     +0.048674904        +0.29038588         +0.46341014         
 Si9     +0.61099094         +2.0079975          +1.0502929          
 Si10    -0.61862023         +0.43489271         -0.81488041         
 Si11    +0.31318191         -0.24518407         -0.59924992         
 Si12    -1.3715478          -1.2532305          -0.76065723         
 Si13    +1.913661           +0.44658181         +1.0021394          
 Si14    +0.051207924        -0.14935613         -0.27141268         
 Si15    -0.01188232         +0.8290335          +1.029661           
 Si16    -0.7032015          -0.081069235        -0.90474099         
 Si17    +0.22589188         +0.74199149         +0.38541743         
 Si18    +0.23874889         -0.71158578         -2.0097297          
 Si19    +1.6440963          +0.62134615         +1.2250578          
 Si20    +0.30751092         +0.19411008         -0.47227081         
 Si21    -0.052320397        +0.46485345         +0.74678684         
 Si22    -0.89843263         -0.30254563         -0.13986784         
 Si23    -0.45779657         +0.83301153         -0.16191796         
 Si24    -0.24047671         -0.45876468         -0.49173049         
 Si25    +0.38772127         -0.91401953         +0.066721162        
 Si26    +0.33520644         -0.67804464         -0.070828079        
 Si27    +0.55031414         -0.40071294         +0.1079671          
 Si28    -0.20274833         +1.0114206          -0.059831094        
 Si29    +0.17460022         +0.72029992         -0.08307748         
 Si30    -0.28933571         +0.42531596         -0.43652091         
 Si31    +0.16392757         -0.09089409         -0.45190512         
 Si32    -0.12406873         -0.62510771         +0.30919935         
 Si33    -0.84080359         -0.34708776         +0.059893551        
 Si34    -0.40440435         +1.3893577          -0.038427864        
 Si35    -0.097917392        +0.49069429         +0.65288152         
 Si36    -0.67543321         +0.68251645         +0.037003527        
 C1      +1.1880267          +0.59533387         +0.15422349         
 C2      +0.053724664        +0.97541885         +1.090618           
 C3      +0.69968406         +1.1827993          +1.0435865          
 C4      -1.6745295          -0.075428052        -0.089761292        
 C5      +0.12195721         -1.1463406          -0.054074551        
 C6      -1.2941037          -1.2950513          -0.54321778         
 C7      +1.0694178          +0.54825924         -0.28228406         
 C8      -0.016874845        +0.80715568         +0.96619998         
 C9      -0.11947488         +1.0418354          +1.5673207          
 C10     -1.3461894          -0.45288762         -1.2707936          
 C11     +0.46392298         -0.92438911         -0.67090512         
 C12     -0.52879035         -1.8705996          -1.5729551          
 C13     +1.3252159          +0.31274797         +0.69959927         
 C14     +0.11436624         -1.2098909          +0.22171027         
 C15     -0.0455583          +0.49238061         +0.83889804         
 C16     -1.2667269          -1.2247808          -1.0853403          
 C17     +0.25108852         +0.43206296         +0.15146216         
 C18     -0.18442218         -0.79256481         +0.42372029         
 C19     +1.365664           +0.64934247         +0.20703458         
 C20     -0.19629856         -0.95632333         +0.20349103         
 C21     +0.048733049        +0.92831333         +0.42903823         
 C22     -1.604879           -1.3708595          -1.0668035          
 C23     -0.055661276        +0.037174831        +0.1294871          
 C24     -0.043912973        -1.0180657          -0.86340983         
 C25     +0.042151334        -0.77106546         -0.32248275         
 C26     -0.98884305         -0.28719646         +0.28671892         
 C27     -0.66766378         -0.88393943         +0.10407496         
 C28     -0.094151462        +0.40642225         -0.2822509          
 C29     +0.53076369         +0.48446711         -0.38892771         
 C30     -0.16489598         +0.065649646        +0.40178006         
 C31     -0.14294175         -0.87311904         +0.31636771         
 C32     -0.49576563         -0.18930127         -0.24248099         
 C33     -0.29441553         +0.016456845        -0.022934774        
 C34     +0.28696089         +0.078153035        -0.23554364         
 C35     +0.57562961         +0.84212375         -0.89530281         
 C36     +0.44849681         -0.11200834         +0.2960965          


 ><><><><><><><><><><><><><><><><><><><><><><><><><><><><><><><><><><><

 TOTAL-STRESS (KBAR)

 ><><><><><><><><><><><><><><><><><><><><><><><><><><><><><><><><><><><

 +39.367356             +38.943618             +45.671822             
 +38.943618             -45.780246             -34.837454             
 +45.671822             -34.837454             +4.639033              
 TOTAL-PRESSURE: -0.591285 KBAR


 ------------------------------------------------------------------------------------------------
 Energy              Potential           Kinetic             Temperature         Pressure (KBAR)     
 -347.277            -347.38423          +0.10722556         +317.92595          +3.4787583          
 ------------------------------------------------------------------------------------------------

output Pressure for check!
Virtual Pressure is +3.4787583 Kbar 
Virial Term is -0.59128541 Kbar 
Kenetic Term is +4.0700437 Kbar 


 ><><><><><><><><><><><><><><><><><><><><><><><><><><><><><><><><><><><

 MD STRESS (KBAR)

 ><><><><><><><><><><><><><><><><><><><><><><><><><><><><><><><><><><><

+43.235453     +39.165548     +45.537908     
+39.165548     -41.405614     -35.024657     
+45.537908     -35.024657     +8.6064358     




 --------------------------------------------
 !FINAL_ETOT_IS -9452.809778990439 eV
 --------------------------------------------






  |CLASS_NAME---------|NAME---------------|TIME(Sec)-----|CALLS----|AVG------|PER%-------
                       total               +13756         27        +5.1e+02  +1e+02    %
   Driver              driver_line         +13756         1         +1.4e+04  +1e+02    %
   PW_Basis            setup_struc_factor  +1.2243        11        +0.11     +0.0089   %
   ORB_control         read_orb_first      +0.22734       1         +0.23     +0.0017   %
   LCAO_Orbitals       Read_Orbitals       +0.22734       1         +0.23     +0.0017   %
   NOrbital_Lm         extra_uniform       +0.12277       16        +0.0077   +0.00089  %
   Mathzone_Add1       Uni_Deriv_Phi       +0.10766       16        +0.0067   +0.00078  %
   ORB_control         set_orb_tables      +7.0053        1         +7        +0.051    %
   ORB_gen_tables      gen_tables          +7.0053        1         +7        +0.051    %
   ORB_table_phi       init_Table          +5.1828        1         +5.2      +0.038    %
   ORB_table_phi       cal_ST_Phi12_R      +5.1336        558       +0.0092   +0.037    %
   ORB_table_beta      init_Table_Beta     +1.3401        1         +1.3      +0.0097   %
   ORB_table_beta      VNL_PhiBeta_R       +1.3327        168       +0.0079   +0.0097   %
   ppcell_vl           init_vloc           +0.25949       1         +0.26     +0.0019   %
   Run_MD              md_line             +13748         1         +1.4e+04  +1e+02    %
   Langevin            setup               +1710.9        1         +1.7e+03  +12       %
   MD_func             force_stress        +13748         11        +1.2e+03  +1e+02    %
   ESolver_KS_LCAO     Run                 +12696         11        +1.2e+03  +92       %
   ESolver_KS_LCAO     beforescf           +26.309        11        +2.4      +0.19     %
   ESolver_KS_LCAO     beforesolver        +10.237        11        +0.93     +0.074    %
   ESolver_KS_LCAO     set_matrix_grid     +6.0321        11        +0.55     +0.044    %
   atom_arrange        search              +0.10136       11        +0.0092   +0.00074  %
   Grid_Technique      init                +3.1834        11        +0.29     +0.023    %
   Grid_BigCell        grid_expansion_index+0.96837       22        +0.044    +0.007    %
   Record_adj          for_2d              +2.4035        11        +0.22     +0.017    %
   Grid_Driver         Find_atom           +16.496        683208    +2.4e-05  +0.12     %
   Charge              atomic_rho          +13.963        21        +0.66     +0.1      %
   PW_Basis            recip2real          +2.3298        750       +0.0031   +0.017    %
   PW_Basis            gathers_scatterp    +1.2399        750       +0.0017   +0.009    %
   Potential           init_pot            +0.90821       11        +0.083    +0.0066   %
   Potential           update_from_charge  +10.287        137       +0.075    +0.075    %
   Potential           cal_v_eff           +10.236        137       +0.075    +0.074    %
   H_Hartree_pw        v_hartree           +1.0744        137       +0.0078   +0.0078   %
   PW_Basis            real2recip          +3.1907        1140      +0.0028   +0.023    %
   PW_Basis            gatherp_scatters    +1.4646        1140      +0.0013   +0.011    %
   PotXC               cal_v_eff           +9.0729        137       +0.066    +0.066    %
   XC_Functional       v_xc                +9.0215        137       +0.066    +0.066    %
   HSolverLCAO         solve               +12647         126       +1e+02    +92       %
   HamiltLCAO          updateHk            +4598.5        4536      +1        +33       %
   OperatorLCAO        init                +3899.6        9072      +0.43     +28       %
   Veff                contributeHk        +3897          4536      +0.86     +28       %
   Gint_interface      cal_gint            +6116.8        263       +23       +44       %
   Gint_interface      cal_gint_vlocal     +2936.3        126       +23       +21       %
   Gint_k              folding_vl_k        +960.74        4536      +0.21     +7        %
   Gint_k              Distri              +710.48        4536      +0.16     +5.2      %
   Overlap             contributeHR        +4.793         11        +0.44     +0.035    %
   LCAO_gen_fixedH     calculate_S_no      +4.793         11        +0.44     +0.035    %
   Ekinetic<OperatorLCAO>contributeHR        +4.8949        11        +0.44     +0.036    %
   Nonlocal<OperatorLCAO>contributeHR        +49.364        11        +4.5      +0.36     %
   LCAO_gen_fixedH     build_Nonlocal_mu_new+156.27        22        +7.1      +1.1      %
   ORB_gen_tables      snap_psibeta_half   +3.4553        1234743   +2.8e-06  +0.025    %
   OperatorLCAO        folding_fixed       +639.82        4536      +0.14     +4.7      %
   LCAO_nnr            folding_fixedH      +632.35        4536      +0.14     +4.6      %
   HSolverLCAO         hamiltSolvePsiK     +1925.9        4536      +0.42     +14       %
   DiagoElpa           elpa_solve          +1911.6        4536      +0.42     +14       %
   ElecStateLCAO       psiToRho            +6122.9        126       +49       +45       %
   elecstate           cal_dm              +164.87        137       +1.2      +1.2      %
   psiMulPsiMpi        pdgemm              +159.51        4932      +0.032    +1.2      %
    Local_Orbital_wfc  wfc_2d_to_grid      +28.575        4536      +0.0063   +0.21     %
   LCAO_Charge         cal_dk_k            +3329.9        126       +26       +24       %
   Record_adj          for_grid            +0.68158       126       +0.0054   +0.005    %
   Gint_interface      cal_gint_rho        +2620.9        126       +21       +19       %
   Charge              mix_rho             +1.5388        115       +0.013    +0.011    %
   Force_Stress_LCAO   getForceStress      +1051.2        11        +96       +7.6      %
   Forces              cal_force_loc       +0.93952       11        +0.085    +0.0068   %
   Forces              cal_force_ew        +0.91474       11        +0.083    +0.0066   %
   Forces              cal_force_scc       +7.8622        11        +0.71     +0.057    %
   Stress_Func         stress_loc          +5.9548        11        +0.54     +0.043    %
   Stress_Func         stress_ewa          +0.41634       11        +0.038    +0.003    %
   Stress_Func         stress_gga          +0.43936       11        +0.04     +0.0032   %
   Force_LCAO_k        ftable_k            +1034.6        11        +94       +7.5      %
   Force_LCAO_k        allocate_k          +138.75        11        +13       +1        %
   Force_LCAO_k        cal_foverlap_k      +28.741        11        +2.6      +0.21     %
   Force_LCAO_k        cal_edm_2d          +27.754        11        +2.5      +0.2      %
   Local_Orbital_Chargecal_dm_R            +12.317        22        +0.56     +0.09     %
   Force_LCAO_k        cal_ftvnl_dphi_k    +0.31565       11        +0.029    +0.0023   %
   Force_LCAO_k        cal_fvl_dphi_k      +559.54        11        +51       +4.1      %
   Gint_interface      cal_gint_force      +559.54        11        +51       +4.1      %
   Force_LCAO_k        cal_fvnl_dbeta_k_new+284.61        11        +26       +2.1      %
 ----------------------------------------------------------------------------------------

 CLASS_NAME---------|NAME---------------|MEMORY(MB)--------
                                         +2.771e+04
 ORB_table_phi       Jl(x)               +138.2         
 allocate_pvpR       pvpR_reduced        +89.09         
 LocalOrbital_Charge Density_Matrix      +89.09         
 stress_lo           dSR                 +74.16         
 force_lo            dS                  +37.08         
 force_lo            dTVNL               +37.08         
 Force_LCAO_k        dm2d                +12.36         
 ORB_table_phi       Table_SR&TR         +10.58         
 Grid_Meshcell       index2normal        +8.435         
 Grid_Meshcell       index2ucell         +8.435         
 Charge_Mixing       Rrho                +7.031         
 Charge_Mixing       dRrho               +6.152         
 Charge_Mixing       drho                +6.152         
 LocalOrbital_Coef   wfc_k_grid          +4.181         
 init_meshball       meshball_pos        +3.596         
 atoms_on_grid       which_atom          +2.696         
 atoms_on_grid       which_bigcell       +2.696         
 atoms_on_grid       which_unitcell      +2.696         
 ORB_table_beta      Table_NR            +2.045         
 PW_Basis            struc_fac           +1.331         
 ----------------------------------------------------------

 Start  Time  : Mon May 22 14:16:29 2023
 Finish Time  : Mon May 22 18:05:42 2023
 Total  Time  : 3 h 49 mins 13 secs 
