                                                                                     
                             WELCOME TO ABACUS v3.0                                  
                                                                                     
               'Atomic-orbital Based Ab-initio Computation at UStc'                  
                                                                                     
                     Website: http://abacus.ustc.edu.cn/                             
                                                                                     
    Version: Parallel, in development
    Processor Number is 16
    Start Time is Mon May 22 14:16:29 2023
                                                                                     
 ------------------------------------------------------------------------------------

 READING GENERAL INFORMATION
                           global_out_dir = OUT.ABACUS/
                           global_in_card = INPUT
                               pseudo_dir = 
                              orbital_dir = 
                                    DRANK = 1
                                    DSIZE = 16
                                   DCOLOR = 1
                                    GRANK = 1
                                    GSIZE = 1
 The esolver type has been set to : ksdft_lcao




 >>>>>>>>>>>>>>>>>>>>>>>>>>>>>>>>>>>>>>>>>>>>>>>>>>>>>>>>>>>>>>>>>>>>>>
 |                                                                    |
 | Reading atom information in unitcell:                              |
 | From the input file and the structure file we know the number of   |
 | different elments in this unitcell, then we list the detail        |
 | information for each element, especially the zeta and polar atomic |
 | orbital number for each element. The total atom number is counted. |
 | We calculate the nearest atom distance for each atom and show the  |
 | Cartesian and Direct coordinates for each atom. We list the file   |
 | address for atomic orbitals. The volume and the lattice vectors    |
 | in real and reciprocal space is also shown.                        |
 |                                                                    |
 <<<<<<<<<<<<<<<<<<<<<<<<<<<<<<<<<<<<<<<<<<<<<<<<<<<<<<<<<<<<<<<<<<<<<<




 READING UNITCELL INFORMATION
                                    ntype = 2
                 atom label for species 1 = Si
                 atom label for species 2 = C
                  lattice constant (Bohr) = 1.88973
              lattice constant (Angstrom) = 1

 READING ATOM TYPE 1
                               atom label = Si
                      L=0, number of zeta = 3
                      L=1, number of zeta = 3
                      L=2, number of zeta = 2
             number of atom for this type = 36
                      start magnetization = FALSE
                      start magnetization = FALSE
                      start magnetization = FALSE
                      start magnetization = FALSE
                      start magnetization = FALSE
                      start magnetization = FALSE
                      start magnetization = FALSE
                      start magnetization = FALSE
                      start magnetization = FALSE
                      start magnetization = FALSE
                      start magnetization = FALSE
                      start magnetization = FALSE
                      start magnetization = FALSE
                      start magnetization = FALSE
                      start magnetization = FALSE
                      start magnetization = FALSE
                      start magnetization = FALSE
                      start magnetization = FALSE
                      start magnetization = FALSE
                      start magnetization = FALSE
                      start magnetization = FALSE
                      start magnetization = FALSE
                      start magnetization = FALSE
                      start magnetization = FALSE
                      start magnetization = FALSE
                      start magnetization = FALSE
                      start magnetization = FALSE
                      start magnetization = FALSE
                      start magnetization = FALSE
                      start magnetization = FALSE
                      start magnetization = FALSE
                      start magnetization = FALSE
                      start magnetization = FALSE
                      start magnetization = FALSE
                      start magnetization = FALSE
                      start magnetization = FALSE

 READING ATOM TYPE 2
                               atom label = C
                      L=0, number of zeta = 3
                      L=1, number of zeta = 3
                      L=2, number of zeta = 2
             number of atom for this type = 36
                      start magnetization = FALSE
                      start magnetization = FALSE
                      start magnetization = FALSE
                      start magnetization = FALSE
                      start magnetization = FALSE
                      start magnetization = FALSE
                      start magnetization = FALSE
                      start magnetization = FALSE
                      start magnetization = FALSE
                      start magnetization = FALSE
                      start magnetization = FALSE
                      start magnetization = FALSE
                      start magnetization = FALSE
                      start magnetization = FALSE
                      start magnetization = FALSE
                      start magnetization = FALSE
                      start magnetization = FALSE
                      start magnetization = FALSE
                      start magnetization = FALSE
                      start magnetization = FALSE
                      start magnetization = FALSE
                      start magnetization = FALSE
                      start magnetization = FALSE
                      start magnetization = FALSE
                      start magnetization = FALSE
                      start magnetization = FALSE
                      start magnetization = FALSE
                      start magnetization = FALSE
                      start magnetization = FALSE
                      start magnetization = FALSE
                      start magnetization = FALSE
                      start magnetization = FALSE
                      start magnetization = FALSE
                      start magnetization = FALSE
                      start magnetization = FALSE
                      start magnetization = FALSE

                        TOTAL ATOM NUMBER = 72

 CARTESIAN COORDINATES ( UNIT = 1.88973 Bohr ).
         atom                   x                   y                   z                 mag                  vx                  vy                  vz
     tauc_Si1    -0.0268878183033       1.78592444353        2.5185664862                   0                   0                   0                   0
     tauc_Si2       3.01337183039       7.11864264749       2.55276260354                   0                   0                   0                   0
     tauc_Si3      -3.12777522013       7.08186577906       2.47023223679                   0                   0                   0                   0
     tauc_Si4       4.50787825869       6.23711168186       5.06688313181                   0                   0                   0                   0
     tauc_Si5       1.47097254733      0.885779556921       5.05500506473                   0                   0                   0                   0
     tauc_Si6       7.61340040549      0.936126081229       5.12680882788                   0                   0                   0                   0
     tauc_Si7    -0.0916721654482       1.78367645217       7.57224294942                   0                   0                   0                   0
     tauc_Si8       2.94152317249       7.11448586503       7.57729877694                   0                   0                   0                   0
     tauc_Si9      -3.18453158034       7.10186673811       7.51811228363                   0                   0                   0                   0
    tauc_Si10       4.68345230397       6.21512258668      0.296612256029                   0                   0                   0                   0
    tauc_Si11       1.65625842795      0.891119127165      0.261480211551                   0                   0                   0                   0
    tauc_Si12       7.78637210955      0.908093415061       0.32565666479                   0                   0                   0                   0
    tauc_Si13      -1.59227425489       4.41065739777       2.49647443858                   0                   0                   0                   0
    tauc_Si14       1.47052293364       4.45563944744       2.53975264813                   0                   0                   0                   0
    tauc_Si15    -0.0626923686206        7.1006410389       2.51669636212                   0                   0                   0                   0
    tauc_Si16       6.06361652636       3.59139470709       5.11735580213                   0                   0                   0                   0
    tauc_Si17       2.98085246429        3.5696729425       5.07361487332                   0                   0                   0                   0
    tauc_Si18       4.53318585699      0.917446318403       5.07722699519                   0                   0                   0                   0
    tauc_Si19      -1.65514033497       4.42370527016       7.49275123491                   0                   0                   0                   0
    tauc_Si20       1.43190684785         4.449556275       7.56325159536                   0                   0                   0                   0
    tauc_Si21     -0.115610725971       7.09728621659       7.53812256347                   0                   0                   0                   0
    tauc_Si22       6.22313596747       3.56677904127      0.317727570067                   0                   0                   0                   0
    tauc_Si23       3.16385840616       3.55302941584      0.279870951446                   0                   0                   0                   0
    tauc_Si24       4.71155683979      0.889487772603      0.287030384054                   0                   0                   0                   0
    tauc_Si25       3.04098364951       1.78603369174       2.53673949436                   0                   0                   0                   0
    tauc_Si26       6.09695417291       1.80442121872       2.58104216596                   0                   0                   0                   0
    tauc_Si27       4.54589789987        4.4584141424        2.5783257708                   0                   0                   0                   0
    tauc_Si28       1.44980861823       6.22962097936       5.04850893852                   0                   0                   0                   0
    tauc_Si29      -1.60988449339       6.22384726447       4.98481120856                   0                   0                   0                   0
    tauc_Si30     -0.069723460701       3.55078923677       5.02851794389                   0                   0                   0                   0
    tauc_Si31       2.97158611802       1.79185365329       7.58792583076                   0                   0                   0                   0
    tauc_Si32       6.06198678382       1.81626475504       7.62510061246                   0                   0                   0                   0
    tauc_Si33       4.48528053217       4.46679972608       7.59983982534                   0                   0                   0                   0
    tauc_Si34       1.61262708058       6.19863363267      0.255251476181                   0                   0                   0                   0
    tauc_Si35      -1.46098067487       6.18370811923      0.234438784389                   0                   0                   0                   0
    tauc_Si36      0.101245192935       3.52729759476      0.210932406348                   0                   0                   0                   0
      tauc_C1    -0.0676889806437       1.77906659288       4.40306095902                   0                   0                   0                   0
      tauc_C2       2.97757058706        7.1157318298       4.44695697713                   0                   0                   0                   0
      tauc_C3      -3.14424545488       7.08693528457       4.37096338539                   0                   0                   0                   0
      tauc_C4       4.49704847692       6.22475149613        6.9694142408                   0                   0                   0                   0
      tauc_C5       1.43920196121      0.894498250864       6.94173158248                   0                   0                   0                   0
      tauc_C6       7.58724621967      0.931593495907       7.01397864988                   0                   0                   0                   0
      tauc_C7     -0.123208761134       1.79292702553       9.43660332969                   0                   0                   0                   0
      tauc_C8       2.91488371089       7.10310405732       9.46251521408                   0                   0                   0                   0
      tauc_C9      -3.20677382836       7.08793800188       9.40280728313                   0                   0                   0                   0
     tauc_C10       4.53808634196       6.22588631212       1.95100089689                   0                   0                   0                   0
     tauc_C11       1.50628275219       0.90506939534       1.89883968702                   0                   0                   0                   0
     tauc_C12       7.64929659712      0.945631473995       1.99324671467                   0                   0                   0                   0
     tauc_C13      -1.61223046082       4.41961254983       4.37358058943                   0                   0                   0                   0
     tauc_C14       1.46980885781       4.43161532061       4.43252519515                   0                   0                   0                   0
     tauc_C15    -0.0774619860432       7.08815163297       4.41317026115                   0                   0                   0                   0
     tauc_C16       6.04276092838       3.58649691936        6.9962247847                   0                   0                   0                   0
     tauc_C17        2.9645973158       3.57331622896       6.94470223998                   0                   0                   0                   0
     tauc_C18       4.54823786157      0.934582825832       6.96883572824                   0                   0                   0                   0
     tauc_C19      -1.66256202725       4.44008423776       9.42250429576                   0                   0                   0                   0
     tauc_C20       1.41540256146       4.44133142862       9.43801856688                   0                   0                   0                   0
     tauc_C21     -0.143303790077       7.12457009604       9.41895234239                   0                   0                   0                   0
     tauc_C22       6.08441443794       3.58211501659       1.95818491428                   0                   0                   0                   0
     tauc_C23       3.02983106554       3.55919653418       1.93829806813                   0                   0                   0                   0
     tauc_C24       4.57850955835      0.894160118115       1.92655189929                   0                   0                   0                   0
     tauc_C25       2.99698012714       1.80935939173       4.43532778283                   0                   0                   0                   0
     tauc_C26       6.08334064764        1.8091305137        4.4727467688                   0                   0                   0                   0
     tauc_C27       4.53559128973       4.45497629868       4.45942757807                   0                   0                   0                   0
     tauc_C28       1.44785493341       6.21108670365        6.9395317654                   0                   0                   0                   0
     tauc_C29      -1.63781451282       6.19031338162       6.89573110304                   0                   0                   0                   0
     tauc_C30    -0.0870665884295       3.53893253014       6.91684346383                   0                   0                   0                   0
     tauc_C31        2.9523857099       1.78922350475       9.46793793064                   0                   0                   0                   0
     tauc_C32       6.02365430788       1.82942076743       9.50233860843                   0                   0                   0                   0
     tauc_C33        4.4851763569       4.47852031919       9.50338252903                   0                   0                   0                   0
     tauc_C34       1.48146062297       6.20534652847       1.89468636198                   0                   0                   0                   0
     tauc_C35      -1.57907742392       6.19472230154       1.89057093715                   0                   0                   0                   0
     tauc_C36    -0.0157342625531       3.54937783665        1.8939872741                   0                   0                   0                   0


 READING ORBITAL FILE NAMES FOR LCAO
 orbital file: Si_gga_9au_100Ry_3s3p2d.orb
 orbital file: C_gga_9au_100Ry_3s3p2d.orb

                          Volume (Bohr^3) = 4934.40607023
                             Volume (A^3) = 731.202665542

 Lattice vectors: (Cartesian coordinate: in unit of a_0)
       +9.44690881149                  +0                  +0
       -4.80575211488      +7.87620592018                  +0
      -0.225369799464    +0.0260922767425      +9.82723857009
 Reciprocal vectors: (Cartesian coordinate: in unit of 2 pi/a_0)
       +0.10585473195    +0.0645884080604   +0.00225609675967
                   +0     +0.126964684536  -0.000337103618867
                   +0                  -0     +0.101757985508




 >>>>>>>>>>>>>>>>>>>>>>>>>>>>>>>>>>>>>>>>>>>>>>>>>>>>>>>>>>>>>>>>>>>>>>
 |                                                                    |
 | Reading pseudopotentials files:                                    |
 | The pseudopotential file is in UPF format. The 'NC' indicates that |
 | the type of pseudopotential is 'norm conserving'. Functional of    |
 | exchange and correlation is decided by 4 given parameters in UPF   |
 | file.  We also read in the 'core correction' if there exists.      |
 | Also we can read the valence electrons number and the maximal      |
 | angular momentum used in this pseudopotential. We also read in the |
 | trail wave function, trail atomic density and local-pseudopotential|
 | on logrithmic grid. The non-local pseudopotential projector is also|
 | read in if there is any.                                           |
 |                                                                    |
 <<<<<<<<<<<<<<<<<<<<<<<<<<<<<<<<<<<<<<<<<<<<<<<<<<<<<<<<<<<<<<<<<<<<<<




                PAO radial cut off (Bohr) = 15

 Read in pseudopotential file is Si_ONCV_PBE-1.0.upf
                     pseudopotential type = NC
          exchange-correlation functional = PBE
                 nonlocal core correction = 0
                        valence electrons = 4
                                     lmax = 1
                           number of zeta = 0
                     number of projectors = 4
                           L of projector = 0
                           L of projector = 0
                           L of projector = 1
                           L of projector = 1
                PAO radial cut off (Bohr) = 15

 Read in pseudopotential file is C_ONCV_PBE-1.0.upf
                     pseudopotential type = NC
          exchange-correlation functional = PBE
                 nonlocal core correction = 0
                        valence electrons = 4
                                     lmax = 1
                           number of zeta = 0
                     number of projectors = 4
                           L of projector = 0
                           L of projector = 0
                           L of projector = 1
                           L of projector = 1
     initial pseudo atomic orbital number = 0
                                   NLOCAL = 1584




 >>>>>>>>>>>>>>>>>>>>>>>>>>>>>>>>>>>>>>>>>>>>>>>>>>>>>>>>>>>>>>>>>>>>>>
 |                                                                    |
 | Setup plane waves of charge/potential:                             |
 | Use the energy cutoff and the lattice vectors to generate the      |
 | dimensions of FFT grid. The number of FFT grid on each processor   |
 | is 'nrxx'. The number of plane wave basis in reciprocal space is   |
 | different for charege/potential and wave functions. We also set    |
 | the 'sticks' for the parallel of FFT. The number of plane waves    |
 | is 'npw' in each processor.                                        |
 <<<<<<<<<<<<<<<<<<<<<<<<<<<<<<<<<<<<<<<<<<<<<<<<<<<<<<<<<<<<<<<<<<<<<<





 SETUP THE PLANE WAVE BASIS
 energy cutoff for charge/potential (unit:Ry) = 400
          [fft grid for charge/potential] = 120, 120, 120
                      [fft grid division] = 2, 2, 2
      [big fft grid for charge/potential] = 60, 60, 60
                                     nbxx = 14400
                                     nrxx = 115200

 SETUP PLANE WAVES FOR CHARGE/POTENTIAL
                    number of plane waves = 666585
                         number of sticks = 8445

 PARALLEL PW FOR CHARGE/POTENTIAL
     PROC   COLUMNS(POT)             PW
        1            528          41662
        2            528          41663
        3            527          41659
        4            528          41663
        5            528          41663
        6            528          41663
        7            528          41663
        8            527          41659
        9            527          41659
       10            528          41662
       11            528          41662
       12            528          41662
       13            528          41662
       14            528          41661
       15            528          41661
       16            528          41661
 --------------- sum -------------------
       16           8445         666585
                            number of |g| = 40065
                                  max |g| = 36.1821204965
                                  min |g| = 0.0615279068186

 SETUP THE ELECTRONS NUMBER
            electron number of element Si = 4
      total electron number of element Si = 144
             electron number of element C = 4
       total electron number of element C = 144
            AUTOSET number of electrons:  = 288
 DONE : SETUP UNITCELL Time : 0.118831588407 (SEC)





 >>>>>>>>>>>>>>>>>>>>>>>>>>>>>>>>>>>>>>>>>>>>>>>>>>>>>>>>>>>>>>>>>>>>>>
 |                                                                    |
 | Setup K-points                                                     |
 | We setup the k-points according to input parameters.               |
 | The reduced k-points are set according to symmetry operations.     |
 | We treat the spin as another set of k-points.                      |
 |                                                                    |
 <<<<<<<<<<<<<<<<<<<<<<<<<<<<<<<<<<<<<<<<<<<<<<<<<<<<<<<<<<<<<<<<<<<<<<





 SETUP K-POINTS
                                    nspin = 1
                   Input type of k points = Monkhorst-Pack(Gamma)
                                   nkstot = 64
                               nkstot_ibz = 36
      IBZ             DirectX             DirectY             DirectZ              Weight    ibz2bz
        1                   0                   0                   0            0.015625         0
        2                0.75                   0                   0             0.03125         1
        3                 0.5                   0                   0            0.015625         2
        4                   0                0.75                   0             0.03125         4
        5                0.75                0.75                   0             0.03125         5
        6                 0.5                0.75                   0             0.03125         6
        7                0.25                0.75                   0             0.03125         7
        8                   0                 0.5                   0            0.015625         8
        9                0.75                 0.5                   0             0.03125         9
       10                 0.5                 0.5                   0            0.015625        10
       11                   0                   0                0.75             0.03125        16
       12                0.75                   0                0.75             0.03125        17
       13                 0.5                   0                0.75             0.03125        18
       14                0.25                   0                0.75             0.03125        19
       15                   0                0.75                0.75             0.03125        20
       16                0.75                0.75                0.75             0.03125        21
       17                 0.5                0.75                0.75             0.03125        22
       18                0.25                0.75                0.75             0.03125        23
       19                   0                 0.5                0.75             0.03125        24
       20                0.75                 0.5                0.75             0.03125        25
       21                 0.5                 0.5                0.75             0.03125        26
       22                0.25                 0.5                0.75             0.03125        27
       23                   0                0.25                0.75             0.03125        28
       24                0.75                0.25                0.75             0.03125        29
       25                 0.5                0.25                0.75             0.03125        30
       26                0.25                0.25                0.75             0.03125        31
       27                   0                   0                 0.5            0.015625        32
       28                0.75                   0                 0.5             0.03125        33
       29                 0.5                   0                 0.5            0.015625        34
       30                   0                0.75                 0.5             0.03125        36
       31                0.75                0.75                 0.5             0.03125        37
       32                 0.5                0.75                 0.5             0.03125        38
       33                0.25                0.75                 0.5             0.03125        39
       34                   0                 0.5                 0.5            0.015625        40
       35                0.75                 0.5                 0.5             0.03125        41
       36                 0.5                 0.5                 0.5            0.015625        42
                               nkstot now = 36

  KPOINTS            DIRECT_X            DIRECT_Y            DIRECT_Z              WEIGHT
        1                   0                   0                   0            0.015625
        2                0.75                   0                   0             0.03125
        3                 0.5                   0                   0            0.015625
        4                   0                0.75                   0             0.03125
        5                0.75                0.75                   0             0.03125
        6                 0.5                0.75                   0             0.03125
        7                0.25                0.75                   0             0.03125
        8                   0                 0.5                   0            0.015625
        9                0.75                 0.5                   0             0.03125
       10                 0.5                 0.5                   0            0.015625
       11                   0                   0                0.75             0.03125
       12                0.75                   0                0.75             0.03125
       13                 0.5                   0                0.75             0.03125
       14                0.25                   0                0.75             0.03125
       15                   0                0.75                0.75             0.03125
       16                0.75                0.75                0.75             0.03125
       17                 0.5                0.75                0.75             0.03125
       18                0.25                0.75                0.75             0.03125
       19                   0                 0.5                0.75             0.03125
       20                0.75                 0.5                0.75             0.03125
       21                 0.5                 0.5                0.75             0.03125
       22                0.25                 0.5                0.75             0.03125
       23                   0                0.25                0.75             0.03125
       24                0.75                0.25                0.75             0.03125
       25                 0.5                0.25                0.75             0.03125
       26                0.25                0.25                0.75             0.03125
       27                   0                   0                 0.5            0.015625
       28                0.75                   0                 0.5             0.03125
       29                 0.5                   0                 0.5            0.015625
       30                   0                0.75                 0.5             0.03125
       31                0.75                0.75                 0.5             0.03125
       32                 0.5                0.75                 0.5             0.03125
       33                0.25                0.75                 0.5             0.03125
       34                   0                 0.5                 0.5            0.015625
       35                0.75                 0.5                 0.5             0.03125
       36                 0.5                 0.5                 0.5            0.015625

           k-point number in this process = 36
       minimum distributed K point number = 36

  KPOINTS         CARTESIAN_X         CARTESIAN_Y         CARTESIAN_Z              WEIGHT
        1                   0                   0                   0             0.03125
        2     0.0793910489628     0.0484413060453    0.00169207256975              0.0625
        3     0.0529273659752     0.0322942040302    0.00112804837983             0.03125
        4                   0     0.0952235134023   -0.00025282771415              0.0625
        5     0.0793910489628      0.143664819448     0.0014392448556              0.0625
        6     0.0529273659752      0.127517717433   0.000875220665683              0.0625
        7     0.0264636829876      0.111370615417   0.000311196475767              0.0625
        8                   0     0.0634823422682  -0.000168551809433             0.03125
        9     0.0793910489628      0.111923648313    0.00152352076032              0.0625
       10     0.0529273659752     0.0957765462984     0.0009594965704             0.03125
       11                   0                   0     0.0763184891311              0.0625
       12     0.0793910489628     0.0484413060453     0.0780105617008              0.0625
       13     0.0529273659752     0.0322942040302     0.0774465375109              0.0625
       14     0.0264636829876     0.0161471020151      0.076882513321              0.0625
       15                   0     0.0952235134023     0.0760656614169              0.0625
       16     0.0793910489628      0.143664819448     0.0777577339867              0.0625
       17     0.0529273659752      0.127517717433     0.0771937097967              0.0625
       18     0.0264636829876      0.111370615417     0.0766296856068              0.0625
       19                   0     0.0634823422682     0.0761499373216              0.0625
       20     0.0793910489628      0.111923648313     0.0778420098914              0.0625
       21     0.0529273659752     0.0957765462984     0.0772779857015              0.0625
       22     0.0264636829876     0.0796294442833     0.0767139615115              0.0625
       23                   0     0.0317411711341     0.0762342132263              0.0625
       24     0.0793910489628     0.0801824771794     0.0779262857961              0.0625
       25     0.0529273659752     0.0640353751643     0.0773622616062              0.0625
       26     0.0264636829876     0.0478882731492     0.0767982374163              0.0625
       27                   0                   0      0.050878992754             0.03125
       28     0.0793910489628     0.0484413060453     0.0525710653238              0.0625
       29     0.0529273659752     0.0322942040302     0.0520070411339             0.03125
       30                   0     0.0952235134023     0.0506261650399              0.0625
       31     0.0793910489628      0.143664819448     0.0523182376096              0.0625
       32     0.0529273659752      0.127517717433     0.0517542134197              0.0625
       33     0.0264636829876      0.111370615417     0.0511901892298              0.0625
       34                   0     0.0634823422682     0.0507104409446             0.03125
       35     0.0793910489628      0.111923648313     0.0524025135144              0.0625
       36     0.0529273659752     0.0957765462984     0.0518384893244             0.03125

  KPOINTS            DIRECT_X            DIRECT_Y            DIRECT_Z              WEIGHT
        1                   0                   0                   0             0.03125
        2                0.75                   0                   0              0.0625
        3                 0.5                   0                   0             0.03125
        4                   0                0.75                   0              0.0625
        5                0.75                0.75                   0              0.0625
        6                 0.5                0.75                   0              0.0625
        7                0.25                0.75                   0              0.0625
        8                   0                 0.5                   0             0.03125
        9                0.75                 0.5                   0              0.0625
       10                 0.5                 0.5                   0             0.03125
       11                   0                   0                0.75              0.0625
       12                0.75                   0                0.75              0.0625
       13                 0.5                   0                0.75              0.0625
       14                0.25                   0                0.75              0.0625
       15                   0                0.75                0.75              0.0625
       16                0.75                0.75                0.75              0.0625
       17                 0.5                0.75                0.75              0.0625
       18                0.25                0.75                0.75              0.0625
       19                   0                 0.5                0.75              0.0625
       20                0.75                 0.5                0.75              0.0625
       21                 0.5                 0.5                0.75              0.0625
       22                0.25                 0.5                0.75              0.0625
       23                   0                0.25                0.75              0.0625
       24                0.75                0.25                0.75              0.0625
       25                 0.5                0.25                0.75              0.0625
       26                0.25                0.25                0.75              0.0625
       27                   0                   0                 0.5             0.03125
       28                0.75                   0                 0.5              0.0625
       29                 0.5                   0                 0.5             0.03125
       30                   0                0.75                 0.5              0.0625
       31                0.75                0.75                 0.5              0.0625
       32                 0.5                0.75                 0.5              0.0625
       33                0.25                0.75                 0.5              0.0625
       34                   0                 0.5                 0.5             0.03125
       35                0.75                 0.5                 0.5              0.0625
       36                 0.5                 0.5                 0.5             0.03125
 DONE : INIT K-POINTS Time : 0.128151205787 (SEC)

                           occupied bands = 144
                                   NLOCAL = 1584
                                   NBANDS = 173
                                   NBANDS = 173




 >>>>>>>>>>>>>>>>>>>>>>>>>>>>>>>>>>>>>>>>>>>>>>>>>>>>>>>>>>>>>>>>>>>>>>
 |                                                                    |
 | Setup numerical orbitals:                                          |
 | This part setup: numerical atomic orbitals, non-local projectors   |
 | and neutral potential (1D). The atomic orbitals information        |
 | including the radius, angular momentum and zeta number.            |
 | The neutral potential is the sum of local part of pseudopotential  |
 | and potential given by atomic charge, they will cancel out beyond  |
 | a certain radius cutoff, because the Z/r character.                |
 |                                                                    |
 <<<<<<<<<<<<<<<<<<<<<<<<<<<<<<<<<<<<<<<<<<<<<<<<<<<<<<<<<<<<<<<<<<<<<<





 SETUP ONE DIMENSIONAL ORBITALS/POTENTIAL
                        delta k  (1/Bohr) = 0.01
                        delta r    (Bohr) = 0.01
                        dr_uniform (Bohr) = 0.001
                        rmax       (Bohr) = 30
                                    kmesh = 1005
      ORBITAL  L  N      nr      dr    RCUT  CHECK_UNIT    NEW_UNIT
            1  0  0     901    0.01       9           1           1
            2  0  1     901    0.01       9           1           1
            3  0  2     901    0.01       9           1           1
            4  1  0     901    0.01       9           1           1
            5  1  1     901    0.01       9           1           1
            6  1  2     901    0.01       9           1           1
            7  2  0     901    0.01       9           1           1
            8  2  1     901    0.01       9           1           1
      ORBITAL  L  N      nr      dr    RCUT  CHECK_UNIT    NEW_UNIT
            1  0  0     901    0.01       9           1           1
            2  0  1     901    0.01       9           1           1
            3  0  2     901    0.01       9           1           1
            4  1  0     901    0.01       9           1           1
            5  1  1     901    0.01       9           1           1
            6  1  2     901    0.01       9           1           1
            7  2  0     901    0.01       9           1           1
            8  2  1     901    0.01       9           1           1
 SET NONLOCAL PSEUDOPOTENTIAL PROJECTORS
 SET NONLOCAL PSEUDOPOTENTIAL PROJECTORS
 max number of nonlocal projetors among all species is 4

 SETUP THE TWO-CENTER INTEGRATION TABLES

 SETUP THE DIVISION OF H/S MATRIX
 divide the H&S matrix using 2D block algorithms.
                                     nb2d = 64
 parameter nb2d is too large: nb2d = 64
 reset nb2d to value 1, this set would make the program keep working but maybe get slower during diagonalization.
                  trace_loc_row dimension = 1584
                  trace_loc_col dimension = 1584
                                     nloc = 156816

 -------------------------------------------
 STEP OF MOLECULAR DYNAMICS : 0
 -------------------------------------------
              searching radius is (Bohr)) = 25.3
         searching radius unit is (Bohr)) = 1.89
1654348
                                 init_chg = atomic
 DONE : INIT SCF Time : 9.91094 (SEC)


 LCAO ALGORITHM --------------- ION=   1  ELEC=   1--------------------------------

 Density error is 0.278863230362

 LCAO ALGORITHM --------------- ION=   1  ELEC=   2--------------------------------

 Density error is 0.151408026327

 LCAO ALGORITHM --------------- ION=   1  ELEC=   3--------------------------------

 Density error is 0.0433304613083

 LCAO ALGORITHM --------------- ION=   1  ELEC=   4--------------------------------

 Density error is 0.0720504646073

 LCAO ALGORITHM --------------- ION=   1  ELEC=   5--------------------------------

 Density error is 0.0150561484797

 LCAO ALGORITHM --------------- ION=   1  ELEC=   6--------------------------------

 Density error is 0.00780415105066

 LCAO ALGORITHM --------------- ION=   1  ELEC=   7--------------------------------

 Density error is 0.00434024375892

 LCAO ALGORITHM --------------- ION=   1  ELEC=   8--------------------------------

 Density error is 0.00308397714811

 LCAO ALGORITHM --------------- ION=   1  ELEC=   9--------------------------------

 Density error is 0.00163264915745

 LCAO ALGORITHM --------------- ION=   1  ELEC=  10--------------------------------

 Density error is 0.00076598605541

 LCAO ALGORITHM --------------- ION=   1  ELEC=  11--------------------------------

 Density error is 0.000455198852648

 LCAO ALGORITHM --------------- ION=   1  ELEC=  12--------------------------------

 Density error is 0.000143296051534

 LCAO ALGORITHM --------------- ION=   1  ELEC=  13--------------------------------

 Density error is 4.94259370557e-05

 LCAO ALGORITHM --------------- ION=   1  ELEC=  14--------------------------------

 Density error is 2.66475198793e-05

 LCAO ALGORITHM --------------- ION=   1  ELEC=  15--------------------------------

 Density error is 2.22567718562e-05

 LCAO ALGORITHM --------------- ION=   1  ELEC=  16--------------------------------

 Density error is 7.02817439223e-06

 LCAO ALGORITHM --------------- ION=   1  ELEC=  17--------------------------------

 Density error is 3.39427725829e-06

 LCAO ALGORITHM --------------- ION=   1  ELEC=  18--------------------------------

 Density error is 2.08768004754e-06

 LCAO ALGORITHM --------------- ION=   1  ELEC=  19--------------------------------

 Density error is 3.92264760617e-07

 charge density convergence is achieved
 final etot is -9445.19579654 eV

 ><><><><><><><><><><><><><><><><><><><><><><><><><><><><><><><><><><><

    TOTAL-FORCE (eV/Angstrom)

 ><><><><><><><><><><><><><><><><><><><><><><><><><><><><><><><><><><><

     atom              x              y              z
      Si1          -1.4157611          -0.1275043          +1.2821895
      Si2         -0.20764719          -1.0101056          +1.4605191
      Si3          -1.7854731          -1.6170569          +1.9417245
      Si4          +1.5573671         -0.12385558         +0.21058584
      Si5         -0.12331693          +1.1063711         -0.21480153
      Si6           +1.755018          +1.2813186           -0.458048
      Si7          -1.5901936          -0.2355754        +0.071969448
      Si8         +0.42391306          -1.1380101         +0.69148996
      Si9          -1.8158612          -2.5737201         +0.97810038
     Si10          +1.2171535          +0.1476957          -6.6074904
     Si11         -0.30369479         +0.36038871          -7.1532388
     Si12          +1.4634906          +1.2061926          -6.3252121
     Si13          -1.2073776          -0.2647137          +1.0250714
     Si14         +0.47011212         -0.29252952          +1.0817387
     Si15         -0.10399178          -1.7699135          +1.6314857
     Si16          +1.4876281        +0.056483506         -0.67343735
     Si17         +0.48646666        -0.097665316        -0.021940916
     Si18         +0.59230906          +1.0437802         +0.23009769
     Si19          -1.3446938          -0.2804252          +1.2831152
     Si20         -0.18839425        -0.031521802         +0.13559153
     Si21         -0.35679434          -1.1043469         +0.67171248
     Si22          +1.7121233         +0.26781292          -7.1873118
     Si23         +0.18848426         -0.17693141          -6.1320112
     Si24          +0.5719345          +1.1429983          -6.9295723
     Si25         -0.12758933         +0.40233666            +1.37799
     Si26         +0.52913602         +0.69969601          +1.1194706
     Si27         +0.48822404         +0.19661752         +0.87596502
     Si28        +0.048734309         -0.85657219         +0.40409638
     Si29         -0.71964248          -1.3287484         +0.60737156
     Si30         -0.51063806         -0.34681287        +0.021796213
     Si31         +0.21968231         +0.40118504        +0.027364725
     Si32         +0.18531275         +0.61613579         +0.11060515
     Si33          +0.5374112         +0.22863929         +0.25225887
     Si34         -0.20531374         -0.41406694          -6.8515341
     Si35         -0.11559315         -0.53920842          -6.6702302
     Si36         -0.58521384        +0.070846195          -5.1465745
       C1          -1.0161572         -0.40557881         +0.63059487
       C2        +0.054531101         -0.66366929         -0.55127427
       C3           -1.803452          -1.2797124         +0.10261277
       C4          +1.2495863         +0.66822828         -0.35300315
       C5         +0.20113572          +1.5597967         -0.93892511
       C6          +1.9094436          +1.7529808         -0.96940419
       C7         -0.96820466         -0.60904573         +0.35005626
       C8         +0.26125522          -0.2897145         -0.39724317
       C9          -1.7466184         -0.90586651         +0.38764025
      C10          +1.4155111          +0.3863552          +5.5590021
      C11        -0.024150135         +0.85790273          +5.7234713
      C12          +1.7046409          +1.2847456          +4.2099838
      C13          -1.2286633        -0.056678737         +0.83397953
      C14         -0.22275057         +0.76441714         -0.42632036
      C15         -0.14682673         -0.28415781         -0.56562613
      C16          +1.4033471         +0.33632163         -0.35563079
      C17         +0.16687097         -0.41817633         +0.19950338
      C18         -0.31157784         +0.80887426         -0.71126121
      C19           -1.347174         -0.32787274         -0.19795051
      C20        -0.045409705         +0.37521761         -0.34072597
      C21         -0.21571781          -1.3721085         -0.22760269
      C22          +1.3579426         +0.15585858          +6.1450593
      C23         -0.18609011        -0.014667532          +5.4699807
      C24         +0.14041774          +1.5719635          +5.8433523
      C25          +0.3629512         -0.15267148         -0.16757856
      C26         +0.14527749         +0.36683674         -0.25287921
      C27        +0.021805791         +0.27179647         -0.24277438
      C28         -0.67087214        -0.055300144          -0.2857683
      C29         -0.45994163         +0.22346994         -0.48823241
      C30         -0.46100204        +0.034892249         -0.25137613
      C31          +0.3705899         +0.78659661          -0.4084701
      C32         +0.43684423        +0.095245937         -0.39744931
      C33        -0.064637906        -0.061893466          -1.0798076
      C34         -0.19609042         +0.17791358          +6.6683246
      C35         -0.56289491         -0.29956547          +5.6064219
      C36         -0.75123007         -0.18194828          +4.7584137


 ><><><><><><><><><><><><><><><><><><><><><><><><><><><><><><><><><><><

 TOTAL-STRESS (KBAR)

 ><><><><><><><><><><><><><><><><><><><><><><><><><><><><><><><><><><><

              -39.805328              +5.552505             +23.415150
               +5.552505            +133.958568             -11.104421
              +23.415150             -11.104421            +301.341690
 TOTAL-PRESSURE: +131.831643 KBAR


 ------------------------------------------------------------------------------------------------
 Energy              Potential           Kinetic             Temperature         Pressure (KBAR)     
 -347.10105          -347.10442          +0.0033726584       +10                 +131.9657           
 ------------------------------------------------------------------------------------------------

output Pressure for check!
Virtual Pressure is +131.9657 Kbar 
Virial Term is +131.83164 Kbar 
Kenetic Term is +0.13406157 Kbar 


 ><><><><><><><><><><><><><><><><><><><><><><><><><><><><><><><><><><><

 MD STRESS (KBAR)

 ><><><><><><><><><><><><><><><><><><><><><><><><><><><><><><><><><><><

-39.681461     +5.5290827     +23.416241     
+5.5290827     +134.08607     -11.125153     
+23.416241     -11.125153     +301.49251     



 -------------------------------------------
 STEP OF MOLECULAR DYNAMICS : 1
 -------------------------------------------
 NEW-OLD atomic charge density approx. for the potential !
 searching radius is (Bohr))              = +25.29
 searching radius unit is (Bohr))         = +1.8897261
+1655320
 DONE : INIT SCF Time : +1918.14 (SEC)


 LCAO ALGORITHM --------------- ION=+2    ELEC=+1  --------------------------------

 Density error is +0.000687206941069

 LCAO ALGORITHM --------------- ION=+2    ELEC=+2  --------------------------------

 Density error is +0.000754875754643

 LCAO ALGORITHM --------------- ION=+2    ELEC=+3  --------------------------------

 Density error is +0.000638134591268

 LCAO ALGORITHM --------------- ION=+2    ELEC=+4  --------------------------------

 Density error is +0.000136476034332

 LCAO ALGORITHM --------------- ION=+2    ELEC=+5  --------------------------------

 Density error is +4.4851462555e-05

 LCAO ALGORITHM --------------- ION=+2    ELEC=+6  --------------------------------

 Density error is +3.45625220086e-05

 LCAO ALGORITHM --------------- ION=+2    ELEC=+7  --------------------------------

 Density error is +1.52753883012e-05

 LCAO ALGORITHM --------------- ION=+2    ELEC=+8  --------------------------------

 Density error is +3.54785427444e-06

 LCAO ALGORITHM --------------- ION=+2    ELEC=+9  --------------------------------

 Density error is +1.94231535134e-06

 LCAO ALGORITHM --------------- ION=+2    ELEC=+10 --------------------------------

 Density error is +5.86653780852e-07

 charge density convergence is achieved
 final etot is -9445.44447579 eV

 ><><><><><><><><><><><><><><><><><><><><><><><><><><><><><><><><><><><

    TOTAL-FORCE (eV/Angstrom)

 ><><><><><><><><><><><><><><><><><><><><><><><><><><><><><><><><><><><

 atom    x              y              z              
 Si1     -1.4363716          -0.10496929         +1.2690808          
 Si2     -0.19916021         -0.96687657         +1.4532569          
 Si3     -1.7805194          -1.6457518          +1.9533615          
 Si4     +1.5348234          -0.07676772         +0.19501521         
 Si5     -0.12763325         +1.0726207          -0.23860262         
 Si6     +1.740144           +1.266738           -0.46716889         
 Si7     -1.5912847          -0.22979863         +0.061585505        
 Si8     +0.40861602         -1.1350179          +0.66817902         
 Si9     -1.8273197          -2.5514105          +0.97038302         
 Si10    +1.2144759          +0.12713007         -6.4873515          
 Si11    -0.32388015         +0.32961441         -6.9769534          
 Si12    +1.456046           +1.2190006          -6.2098076          
 Si13    -1.2127176          -0.26256241         +1.0430524          
 Si14    +0.45739718         -0.30199381         +1.0779312          
 Si15    -0.11561294         -1.7345239          +1.6639227          
 Si16    +1.4892055          +0.068980267        -0.69561069         
 Si17    +0.49534958         -0.10995897         -0.061914725        
 Si18    +0.59282533         +1.0245947          +0.20923219         
 Si19    -1.3415877          -0.2866764          +1.266754           
 Si20    -0.20980694         -0.043661074        +0.13785666         
 Si21    -0.34667223         -1.0648137          +0.66788524         
 Si22    +1.6861048          +0.27703831         -6.9859696          
 Si23    +0.17903516         -0.17668341         -5.9561422          
 Si24    +0.53885985         +1.1215854          -6.7479596          
 Si25    -0.12004412         +0.39238436         +1.4034452          
 Si26    +0.53772644         +0.67893364         +1.1210146          
 Si27    +0.49314723         +0.19724034         +0.89044147         
 Si28    +0.068403521        -0.85908681         +0.39770669         
 Si29    -0.72279156         -1.2999191          +0.58455703         
 Si30    -0.50138428         -0.34765939         +0.0095479413       
 Si31    +0.19859298         +0.41943738         -0.0053693984       
 Si32    +0.238507           +0.60398072         +0.080916789        
 Si33    +0.5338212          +0.24733234         +0.19835761         
 Si34    -0.22659764         -0.41207825         -6.5913317          
 Si35    -0.14570207         -0.53568817         -6.4572176          
 Si36    -0.61444646         +0.056877711        -5.0355887          
 C1      -0.98751812         -0.39435155         +0.6565352          
 C2      +0.060324441        -0.66500605         -0.49546185         
 C3      -1.7842437          -1.2447027          +0.13912181         
 C4      +1.2392607          +0.63157471         -0.33932376         
 C5      +0.22461142         +1.5403636          -0.91910168         
 C6      +1.8767432          +1.7411355          -0.95379346         
 C7      -0.96322176         -0.61085464         +0.35106172         
 C8      +0.27758732         -0.28204309         -0.40535733         
 C9      -1.7585202          -0.87645771         +0.39201542         
 C10     +1.4126289          +0.39932144         +5.4102305          
 C11     -0.016013003        +0.86444769         +5.5177534          
 C12     +1.7174029          +1.2454664          +4.110601           
 C13     -1.2283463          -0.07934298         +0.84687755         
 C14     -0.2421137          +0.74769789         -0.3735814          
 C15     -0.16120636         -0.27096222         -0.55516522         
 C16     +1.3798424          +0.3497466          -0.31901193         
 C17     +0.1918645          -0.4192221          +0.24373127         
 C18     -0.32467993         +0.77047514         -0.69708136         
 C19     -1.3203156          -0.33874412         -0.19882665         
 C20     -0.03894496         +0.38519251         -0.37540986         
 C21     -0.21719566         -1.3416149          -0.22976096         
 C22     +1.375113           +0.17626205         +5.9266665          
 C23     -0.16783758         -0.0087621532       +5.2786024          
 C24     +0.14578357         +1.551192           +5.6511903          
 C25     +0.3449708          -0.13964424         -0.15818166         
 C26     +0.16252823         +0.36146502         -0.22600839         
 C27     +0.012668079        +0.23026437         -0.22532521         
 C28     -0.64655919         -0.056165672        -0.29098811         
 C29     -0.46485951         +0.21095341         -0.49561562         
 C30     -0.45126423         +0.055922637        -0.22699264         
 C31     +0.38776113         +0.77770962         -0.39576574         
 C32     +0.44238178         +0.086391846        -0.4100599          
 C33     -0.046607126        -0.037313073        -1.0473903          
 C34     -0.16278832         +0.16180032         +6.3671402          
 C35     -0.54996704         -0.28969747         +5.3790215          
 C36     -0.73881856         -0.19008914         +4.661159           


 ><><><><><><><><><><><><><><><><><><><><><><><><><><><><><><><><><><><

 TOTAL-STRESS (KBAR)

 ><><><><><><><><><><><><><><><><><><><><><><><><><><><><><><><><><><><

 -39.666005             +5.686762              +23.748824             
 +5.686762              +133.824029            -11.068540             
 +23.748824             -11.068540             +298.017925            
 TOTAL-PRESSURE: +130.725316 KBAR


 ------------------------------------------------------------------------------------------------
 Energy              Potential           Kinetic             Temperature         Pressure (KBAR)     
 -347.10248          -347.11356          +0.011080828        +32.854879          +131.16577          
 ------------------------------------------------------------------------------------------------

output Pressure for check!
Virtual Pressure is +131.16577 Kbar 
Virial Term is +130.72532 Kbar 
Kenetic Term is +0.44045768 Kbar 


 ><><><><><><><><><><><><><><><><><><><><><><><><><><><><><><><><><><><

 MD STRESS (KBAR)

 ><><><><><><><><><><><><><><><><><><><><><><><><><><><><><><><><><><><

-39.320184     +5.7572526     +23.739659     
+5.7572526     +134.23252     -11.045678     
+23.739659     -11.045678     +298.58499     



 -------------------------------------------
 STEP OF MOLECULAR DYNAMICS : 2
 -------------------------------------------
 first order charge density extrapolation !
 searching radius is (Bohr))              = +25.29
 searching radius unit is (Bohr))         = +1.8897261
+1655356
 DONE : INIT SCF Time : +2964.13 (SEC)


 LCAO ALGORITHM --------------- ION=+3    ELEC=+1  --------------------------------

 Density error is +0.0016279041712

 LCAO ALGORITHM --------------- ION=+3    ELEC=+2  --------------------------------

 Density error is +0.00107106889437

 LCAO ALGORITHM --------------- ION=+3    ELEC=+3  --------------------------------

 Density error is +0.000961939963903

 LCAO ALGORITHM --------------- ION=+3    ELEC=+4  --------------------------------

 Density error is +0.000209197032429

 LCAO ALGORITHM --------------- ION=+3    ELEC=+5  --------------------------------

 Density error is +0.000135418725717

 LCAO ALGORITHM --------------- ION=+3    ELEC=+6  --------------------------------

 Density error is +5.55471139537e-05

 LCAO ALGORITHM --------------- ION=+3    ELEC=+7  --------------------------------

 Density error is +2.50049953959e-05

 LCAO ALGORITHM --------------- ION=+3    ELEC=+8  --------------------------------

 Density error is +5.63608514382e-06

 LCAO ALGORITHM --------------- ION=+3    ELEC=+9  --------------------------------

 Density error is +2.21822361787e-06

 LCAO ALGORITHM --------------- ION=+3    ELEC=+10 --------------------------------

 Density error is +1.11237387309e-06

 LCAO ALGORITHM --------------- ION=+3    ELEC=+11 --------------------------------

 Density error is +4.84040870802e-07

 charge density convergence is achieved
 final etot is -9445.77862086 eV

 ><><><><><><><><><><><><><><><><><><><><><><><><><><><><><><><><><><><

    TOTAL-FORCE (eV/Angstrom)

 ><><><><><><><><><><><><><><><><><><><><><><><><><><><><><><><><><><><

 atom    x              y              z              
 Si1     -1.5030435          -0.062367413        +1.3671728          
 Si2     -0.18183696         -0.97032625         +1.4613627          
 Si3     -1.803619           -1.5988954          +1.9561746          
 Si4     +1.5063483          -0.071975854        +0.11773748         
 Si5     -0.1706248          +1.0204949          -0.2077794          
 Si6     +1.6958135          +1.2464359          -0.55496093         
 Si7     -1.5701929          -0.19107518         -0.011355439        
 Si8     +0.3823211          -1.1481831          +0.59331935         
 Si9     -1.8379057          -2.5750068          +0.929941           
 Si10    +1.2192491          +0.068658773        -6.1208366          
 Si11    -0.41190252         +0.3084508          -6.7089203          
 Si12    +1.4226676          +1.2132952          -5.8883047          
 Si13    -1.2214876          -0.26416598         +1.0685396          
 Si14    +0.34751787         -0.35534439         +1.0749414          
 Si15    -0.15074823         -1.7368972          +1.7052792          
 Si16    +1.4724053          +0.05177604         -0.67099654         
 Si17    +0.49615496         +0.03950728         -0.11678317         
 Si18    +0.54750941         +0.94624268         +0.16367873         
 Si19    -1.3238974          -0.2467634          +1.2356402          
 Si20    -0.13727881         -0.097706676        +0.085289751        
 Si21    -0.34386571         -1.1051102          +0.66152222         
 Si22    +1.7222314          +0.31777064         -6.742936           
 Si23    +0.21061526         -0.17157753         -5.8073142          
 Si24    +0.5129628          +1.0526205          -6.5100563          
 Si25    -0.15012829         +0.27833297         +1.4768365          
 Si26    +0.61419545         +0.69033558         +1.1104327          
 Si27    +0.56125056         +0.26901882         +0.87376903         
 Si28    +0.022236385        -0.86043376         +0.42244232         
 Si29    -0.76597786         -1.3215483          +0.55001966         
 Si30    -0.5753569          -0.37714729         -0.009920818        
 Si31    +0.20081133         +0.43412814         +0.0050807716       
 Si32    +0.21102852         +0.56368451         +0.047535221        
 Si33    +0.47335675         +0.26687872         +0.2180875          
 Si34    -0.28092867         -0.4375693          -6.4269183          
 Si35    -0.26732377         -0.5495653          -6.3806095          
 Si36    -0.69626782         +0.10185186         -4.8841422          
 C1      -0.97253327         -0.3589869          +0.64307559         
 C2      +0.13930415         -0.61932422         -0.41363835         
 C3      -1.7391454          -1.2562724          +0.20829148         
 C4      +1.2256701          +0.60114205         -0.24650479         
 C5      +0.22667962         +1.6257717          -0.93250691         
 C6      +1.8266578          +1.701085           -0.89862343         
 C7      -0.88173138         -0.64373257         +0.34966942         
 C8      +0.30480502         -0.17944264         -0.36101699         
 C9      -1.6611167          -0.96226336         +0.41409654         
 C10     +1.3870046          +0.33538157         +4.9800635          
 C11     +0.10377392         +0.82919646         +5.2280385          
 C12     +1.6768687          +1.2391252          +3.7291844          
 C13     -1.1700952          -0.055863283        +0.81831207         
 C14     -0.16628871         +0.66963793         -0.39612101         
 C15     -0.16664921         -0.20707053         -0.58650239         
 C16     +1.4229811          +0.28669042         -0.36756877         
 C17     +0.14085313         -0.47072244         +0.34319926         
 C18     -0.25546115         +0.83923102         -0.60210635         
 C19     -1.3238202          -0.29008602         -0.14556428         
 C20     +0.018965465        +0.30125875         -0.26146248         
 C21     -0.15718725         -1.2092864          -0.23617437         
 C22     +1.3521886          +0.11639289         +5.7533162          
 C23     -0.18979456         +0.11511525         +5.025713           
 C24     +0.14507275         +1.5357588          +5.3948038          
 C25     +0.40271265         -0.19905366         -0.19212275         
 C26     +0.23319101         +0.44137187         -0.17059369         
 C27     -0.049787224        +0.17683242         -0.16778798         
 C28     -0.68850135         +0.084732395        -0.29120032         
 C29     -0.42489823         +0.18581875         -0.47589485         
 C30     -0.42951167         -0.01475469         -0.21806227         
 C31     +0.42117605         +0.87436877         -0.4695585          
 C32     +0.39561936         -0.0021231193       -0.45425769         
 C33     -0.15064142         +0.016932948        -1.0871464          
 C34     -0.090913935        +0.12447579         +6.1684105          
 C35     -0.52304969         -0.23454453         +5.2840201          
 C36     -0.60868669         -0.12461731         +4.5512518          


 ><><><><><><><><><><><><><><><><><><><><><><><><><><><><><><><><><><><

 TOTAL-STRESS (KBAR)

 ><><><><><><><><><><><><><><><><><><><><><><><><><><><><><><><><><><><

 -39.873161             +6.116320              +23.853546             
 +6.116320              +133.637484            -11.225430             
 +23.853546             -11.225430             +293.511600            
 TOTAL-PRESSURE: +129.091974 KBAR


 ------------------------------------------------------------------------------------------------
 Energy              Potential           Kinetic             Temperature         Pressure (KBAR)     
 -347.09687          -347.12584          +0.028971569        +85.901283          +130.24358          
 ------------------------------------------------------------------------------------------------

output Pressure for check!
Virtual Pressure is +130.24358 Kbar 
Virial Term is +129.09197 Kbar 
Kenetic Term is +1.1516061 Kbar 


 ><><><><><><><><><><><><><><><><><><><><><><><><><><><><><><><><><><><

 MD STRESS (KBAR)

 ><><><><><><><><><><><><><><><><><><><><><><><><><><><><><><><><><><><

-38.73892      +6.2677947     +23.775933     
+6.2677947     +134.4577      -11.27026      
+23.775933     -11.27026      +295.01196     



 -------------------------------------------
 STEP OF MOLECULAR DYNAMICS : 3
 -------------------------------------------
 second order charge density extrapolation !
 searching radius is (Bohr))              = +25.29
 searching radius unit is (Bohr))         = +1.8897261
+1654740
 DONE : INIT SCF Time : +4103.23 (SEC)


 LCAO ALGORITHM --------------- ION=+4    ELEC=+1  --------------------------------

 Density error is +0.00209633376262

 LCAO ALGORITHM --------------- ION=+4    ELEC=+2  --------------------------------

 Density error is +0.00129680913943

 LCAO ALGORITHM --------------- ION=+4    ELEC=+3  --------------------------------

 Density error is +0.00121474679995

 LCAO ALGORITHM --------------- ION=+4    ELEC=+4  --------------------------------

 Density error is +0.000328877975311

 LCAO ALGORITHM --------------- ION=+4    ELEC=+5  --------------------------------

 Density error is +0.000176580127762

 LCAO ALGORITHM --------------- ION=+4    ELEC=+6  --------------------------------

 Density error is +7.19935440103e-05

 LCAO ALGORITHM --------------- ION=+4    ELEC=+7  --------------------------------

 Density error is +2.8318596488e-05

 LCAO ALGORITHM --------------- ION=+4    ELEC=+8  --------------------------------

 Density error is +8.12370359088e-06

 LCAO ALGORITHM --------------- ION=+4    ELEC=+9  --------------------------------

 Density error is +3.52097893962e-06

 LCAO ALGORITHM --------------- ION=+4    ELEC=+10 --------------------------------

 Density error is +1.34574804899e-06

 LCAO ALGORITHM --------------- ION=+4    ELEC=+11 --------------------------------

 Density error is +5.76213507575e-07

 charge density convergence is achieved
 final etot is -9446.32287114 eV

 ><><><><><><><><><><><><><><><><><><><><><><><><><><><><><><><><><><><

    TOTAL-FORCE (eV/Angstrom)

 ><><><><><><><><><><><><><><><><><><><><><><><><><><><><><><><><><><><

 atom    x              y              z              
 Si1     -1.5780367          +0.10372944         +1.3656001          
 Si2     -0.25339162         -0.84949997         +1.3692763          
 Si3     -1.8018864          -1.5063402          +1.9378618          
 Si4     +1.5471991          -0.085935281        +0.064824093        
 Si5     -0.23460839         +0.8657073          -0.24911392         
 Si6     +1.7360611          +1.1509393          -0.57844358         
 Si7     -1.5157978          -0.23007553         -0.036741522        
 Si8     +0.45788715         -1.1682728          +0.48077795         
 Si9     -1.8138501          -2.5295106          +0.81389351         
 Si10    +1.1951399          +0.051088283        -5.9579925          
 Si11    -0.5155921          +0.3210931          -6.3801169          
 Si12    +1.4363956          +1.2314067          -5.6402818          
 Si13    -1.2049653          -0.29441512         +1.1977329          
 Si14    +0.22004985         -0.41977229         +1.0029023          
 Si15    -0.12405911         -1.6429015          +1.7446031          
 Si16    +1.3992194          +0.1974231          -0.67765594         
 Si17    +0.51300035         +0.041272166        -0.23036094         
 Si18    +0.52084288         +0.96134269         +0.043720202        
 Si19    -1.4174537          -0.27522289         +1.2792678          
 Si20    -0.11113107         +0.055879417        +0.19753328         
 Si21    -0.31240036         -1.0362741          +0.64905934         
 Si22    +1.7008617          +0.23840409         -6.4068856          
 Si23    +0.18363292         -0.073450056        -5.3573247          
 Si24    +0.51826142         +1.0496901          -5.9852195          
 Si25    -0.14897775         +0.37121105         +1.4605134          
 Si26    +0.56991461         +0.77303199         +1.0817841          
 Si27    +0.50470054         +0.25239603         +0.89481409         
 Si28    -0.11885018         -0.87779522         +0.44766589         
 Si29    -0.85900811         -1.3818772          +0.41492412         
 Si30    -0.69719634         -0.28781858         -0.081329809        
 Si31    +0.082385322        +0.49665997         +0.063305482        
 Si32    +0.32944273         +0.51122704         +0.040721767        
 Si33    +0.52560392         +0.36364109         +0.27556893         
 Si34    -0.37320009         -0.46737584         -5.8682933          
 Si35    -0.35184461         -0.60590363         -5.9772954          
 Si36    -0.7497406          +0.08581758         -4.5431483          
 C1      -0.97788243         -0.33548898         +0.67473198         
 C2      +0.23686992         -0.44077811         -0.33585159         
 C3      -1.6480371          -1.2600667          +0.36356417         
 C4      +1.083176           +0.58549991         -0.14894241         
 C5      +0.20570701         +1.6024472          -0.83738619         
 C6      +1.6943803          +1.6484868          -0.80621522         
 C7      -0.77880928         -0.68237737         +0.36919461         
 C8      +0.396089           -0.1485149          -0.28783483         
 C9      -1.5854892          -0.93859103         +0.54413484         
 C10     +1.3751701          +0.40408628         +4.7381927          
 C11     +0.20264644         +0.66538058         +4.7765166          
 C12     +1.6993159          +1.0177449          +3.4588475          
 C13     -1.064967           +0.017227367        +0.84000017         
 C14     -0.092919243        +0.53928951         -0.21117456         
 C15     -0.13399672         -0.18803965         -0.56873588         
 C16     +1.3830277          +0.28848469         -0.35240423         
 C17     +0.057868998        -0.50098144         +0.24974623         
 C18     -0.16747812         +0.72654675         -0.53074924         
 C19     -1.3002955          -0.15701983         -0.21848915         
 C20     +0.050961734        +0.23845136         -0.4349854          
 C21     -0.23417431         -1.2373673          -0.35233305         
 C22     +1.3684435          +0.06993732         +5.3564004          
 C23     -0.15692954         +0.07964994         +4.6094389          
 C24     +0.27972238         +1.4535643          +4.9274413          
 C25     +0.50743074         -0.061574974        -0.050519177        
 C26     +0.14928644         +0.31152407         -0.1721282          
 C27     +0.015817471        +0.088691851        -0.059854919        
 C28     -0.60044889         -0.020997831        -0.20762736         
 C29     -0.44890681         +0.26879643         -0.35145881         
 C30     -0.33782724         -0.064940131        -0.31175318         
 C31     +0.46006616         +0.82522104         -0.59382572         
 C32     +0.27911258         +0.11827718         -0.42708085         
 C33     -0.16299589         -0.030818327        -1.1973658          
 C34     +0.03191177         +0.14694448         +5.6317572          
 C35     -0.5954072          -0.26481904         +4.7849476          
 C36     -0.44904778         -0.15339582         +4.2756549          


 ><><><><><><><><><><><><><><><><><><><><><><><><><><><><><><><><><><><

 TOTAL-STRESS (KBAR)

 ><><><><><><><><><><><><><><><><><><><><><><><><><><><><><><><><><><><

 -39.080682             +6.773822              +24.135092             
 +6.773822              +132.311562            -10.613406             
 +24.135092             -10.613406             +286.099460            
 TOTAL-PRESSURE: +126.443446 KBAR


 ------------------------------------------------------------------------------------------------
 Energy              Potential           Kinetic             Temperature         Pressure (KBAR)     
 -347.11202          -347.14584          +0.033822315        +100.28384          +127.78787          
 ------------------------------------------------------------------------------------------------

output Pressure for check!
Virtual Pressure is +127.78787 Kbar 
Virial Term is +126.44345 Kbar 
Kenetic Term is +1.344421 Kbar 


 ><><><><><><><><><><><><><><><><><><><><><><><><><><><><><><><><><><><

 MD STRESS (KBAR)

 ><><><><><><><><><><><><><><><><><><><><><><><><><><><><><><><><><><><

-37.837204     +6.5975929     +23.90869      
+6.5975929     +133.51598     -10.512585     
+23.90869      -10.512585     +287.68483     



 -------------------------------------------
 STEP OF MOLECULAR DYNAMICS : 4
 -------------------------------------------
 second order charge density extrapolation !
 searching radius is (Bohr))              = +25.29
 searching radius unit is (Bohr))         = +1.8897261
+1653258
 DONE : INIT SCF Time : +5245.34 (SEC)


 LCAO ALGORITHM --------------- ION=+5    ELEC=+1  --------------------------------

 Density error is +0.00262351996531

 LCAO ALGORITHM --------------- ION=+5    ELEC=+2  --------------------------------

 Density error is +0.00161881087893

 LCAO ALGORITHM --------------- ION=+5    ELEC=+3  --------------------------------

 Density error is +0.00154507751925

 LCAO ALGORITHM --------------- ION=+5    ELEC=+4  --------------------------------

 Density error is +0.00035753227481

 LCAO ALGORITHM --------------- ION=+5    ELEC=+5  --------------------------------

 Density error is +0.000216503423736

 LCAO ALGORITHM --------------- ION=+5    ELEC=+6  --------------------------------

 Density error is +9.81710107181e-05

 LCAO ALGORITHM --------------- ION=+5    ELEC=+7  --------------------------------

 Density error is +3.66894554685e-05

 LCAO ALGORITHM --------------- ION=+5    ELEC=+8  --------------------------------

 Density error is +9.24742042687e-06

 LCAO ALGORITHM --------------- ION=+5    ELEC=+9  --------------------------------

 Density error is +4.55689621955e-06

 LCAO ALGORITHM --------------- ION=+5    ELEC=+10 --------------------------------

 Density error is +1.75024605839e-06

 LCAO ALGORITHM --------------- ION=+5    ELEC=+11 --------------------------------

 Density error is +6.23096082641e-07

 charge density convergence is achieved
 final etot is -9446.60185198 eV

 ><><><><><><><><><><><><><><><><><><><><><><><><><><><><><><><><><><><

    TOTAL-FORCE (eV/Angstrom)

 ><><><><><><><><><><><><><><><><><><><><><><><><><><><><><><><><><><><

 atom    x              y              z              
 Si1     -1.5794015          +0.055405636        +1.3436571          
 Si2     -0.0336381          -0.92769474         +1.4633206          
 Si3     -1.7889383          -1.434324           +1.9734255          
 Si4     +1.6263421          -0.061683697        +0.078261386        
 Si5     -0.25371393         +0.79071475         -0.25469582         
 Si6     +1.8002131          +0.97877274         -0.72695543         
 Si7     -1.4939319          -0.2120977          +0.038641001        
 Si8     +0.60099202         -1.3151862          +0.54118759         
 Si9     -1.9221505          -2.5040864          +0.75337024         
 Si10    +1.18299            +0.03433399         -5.8074838          
 Si11    -0.52249503         +0.37489167         -6.2020178          
 Si12    +1.417129           +1.2088505          -5.3846522          
 Si13    -1.3303807          -0.27001427         +1.3106899          
 Si14    +0.2415176          -0.44858511         +1.1969842          
 Si15    -0.13177729         -1.6499731          +1.913953           
 Si16    +1.294654           +0.26594843         -0.74774646         
 Si17    +0.4792839          +0.045581591        -0.27747104         
 Si18    +0.64252136         +0.88862061         -0.052725549        
 Si19    -1.2678703          -0.32809749         +1.2985966          
 Si20    -0.17832831         -0.015886913        +0.13254714         
 Si21    -0.27717982         -1.0744808          +0.56549675         
 Si22    +1.6618081          +0.2586001          -6.0181063          
 Si23    +0.055878603        +0.058666351        -5.2381586          
 Si24    +0.43410967         +1.1306762          -5.8382997          
 Si25    -0.070721483        +0.34545174         +1.3465457          
 Si26    +0.6825549          +0.74629323         +1.0774039          
 Si27    +0.56639002         +0.3690026          +0.77545826         
 Si28    -0.13239297         -0.70702782         +0.41153937         
 Si29    -0.83159162         -1.2337623          +0.45061543         
 Si30    -0.71509274         -0.20055977         +0.047366212        
 Si31    +0.080431517        +0.39274403         -0.071123367        
 Si32    +0.23608433         +0.48138818         +0.09379816         
 Si33    +0.48815044         +0.49424364         +0.26874862         
 Si34    -0.43614529         -0.49852173         -5.524903           
 Si35    -0.35939203         -0.59281414         -5.7795512          
 Si36    -0.61799296         +0.017061691        -4.503502           
 C1      -0.85885177         -0.41582798         +0.73595589         
 C2      +0.086889938        -0.31178393         -0.27766923         
[...]
 C16     +1.3344605          -0.10108936         -0.47023567         
 C17     +0.39351312         -0.027268043        +0.49029009         
 C18     -0.12308742         +0.81921259         +0.29923748         
 C19     -0.97310951         -0.18814052         -0.29732205         
 C20     +0.13913968         -0.046232989        +0.075282787        
 C21     -0.24428268         -0.73328669         -0.41163512         
 C22     +1.0393315          +0.14498148         +3.8025742          
 C23     -0.32151839         +0.17096649         +4.1024607          
 C24     -0.26535248         +1.3771494          +2.601426           
 C25     +0.12556026         -0.1879276          +0.034003652        
 C26     -0.21747102         +0.61678997         +0.24708155         
 C27     -0.48862431         -0.19495004         +0.32316328         
 C28     -0.57780236         +0.17946919         -0.7299141          
 C29     -0.40168803         +0.005423859        -0.37805275         
 C30     -0.57767328         -0.19764113         -0.041609358        
 C31     +0.38988081         +0.39441884         -0.066479126        
 C32     +0.56294524         +0.19951724         -0.36122696         
 C33     -0.30560139         +0.092842486        -0.95787769         
 C34     +0.065042521        +0.27950058         +4.2540796          
 C35     -0.38952963         +0.56449725         +2.6158379          
 C36     -0.62891719         +0.003523985        +3.9045229          


 ><><><><><><><><><><><><><><><><><><><><><><><><><><><><><><><><><><><

 TOTAL-STRESS (KBAR)

 ><><><><><><><><><><><><><><><><><><><><><><><><><><><><><><><><><><><

 -42.566855             +10.428507             +28.623315             
 +10.428507             +132.593927            -10.714167             
 +28.623315             -10.714167             +266.157235            
 TOTAL-PRESSURE: +118.728102 KBAR


 ------------------------------------------------------------------------------------------------
 Energy              Potential           Kinetic             Temperature         Pressure (KBAR)     
 -347.12048          -347.20429          +0.083807274        +248.49025          +122.0594           
 ------------------------------------------------------------------------------------------------

output Pressure for check!
Virtual Pressure is +122.0594 Kbar 
Virial Term is +118.7281 Kbar 
Kenetic Term is +3.3312994 Kbar 


 ><><><><><><><><><><><><><><><><><><><><><><><><><><><><><><><><><><><

 MD STRESS (KBAR)

 ><><><><><><><><><><><><><><><><><><><><><><><><><><><><><><><><><><><

-39.923017     +10.23887      +29.111138     
+10.23887      +135.82597     -10.951415     
+29.111138     -10.951415     +270.27525     



 -------------------------------------------
 STEP OF MOLECULAR DYNAMICS : 10
 -------------------------------------------
 second order charge density extrapolation !
 searching radius is (Bohr))              = +25.29
 searching radius unit is (Bohr))         = +1.8897261
+1653828
 DONE : INIT SCF Time : +12644.2 (SEC)


 LCAO ALGORITHM --------------- ION=+11   ELEC=+1  --------------------------------

 Density error is +0.00375498587429

 LCAO ALGORITHM --------------- ION=+11   ELEC=+2  --------------------------------

 Density error is +0.00245946835848

 LCAO ALGORITHM --------------- ION=+11   ELEC=+3  --------------------------------

 Density error is +0.0022790493268

 LCAO ALGORITHM --------------- ION=+11   ELEC=+4  --------------------------------

 Density error is +0.000568728736014

 LCAO ALGORITHM --------------- ION=+11   ELEC=+5  --------------------------------

 Density error is +0.000340201178408

 LCAO ALGORITHM --------------- ION=+11   ELEC=+6  --------------------------------

 Density error is +0.000133206390733

 LCAO ALGORITHM --------------- ION=+11   ELEC=+7  --------------------------------

 Density error is +6.00057180118e-05

 LCAO ALGORITHM --------------- ION=+11   ELEC=+8  --------------------------------

 Density error is +1.44296256438e-05

 LCAO ALGORITHM --------------- ION=+11   ELEC=+9  --------------------------------

 Density error is +6.08121121355e-06

 LCAO ALGORITHM --------------- ION=+11   ELEC=+10 --------------------------------

 Density error is +2.61959065317e-06

 LCAO ALGORITHM --------------- ION=+11   ELEC=+11 --------------------------------

 Density error is +1.17666863288e-06

 LCAO ALGORITHM --------------- ION=+11   ELEC=+12 --------------------------------

 Density error is +3.79570817015e-07

 charge density convergence is achieved
 final etot is -9448.05915597 eV

 ><><><><><><><><><><><><><><><><><><><><><><><><><><><><><><><><><><><

    TOTAL-FORCE (eV/Angstrom)

 ><><><><><><><><><><><><><><><><><><><><><><><><><><><><><><><><><><><

 atom    x              y              z              
 Si1     -1.5865096          -0.17092964         +1.5591771          
 Si2     -0.36557974         -0.59832265         +1.2595229          
 Si3     -1.5387025          -1.2507358          +2.2623733          
 Si4     +1.7174815          +0.22109728         -0.12406936         
 Si5     -0.022448233        +1.0494812          -0.53794299         
 Si6     +2.0390755          +0.35422923         -1.3520266          
 Si7     -1.3334522          +0.047624864        -0.33533417         
 Si8     +1.0346123          -1.1189701          +0.2379879          
 Si9     -1.7450802          -2.1372551          +0.30139258         
 Si10    +1.3300756          -0.067469274        -5.0278253          
 Si11    -0.26874619         +0.55324759         -4.5022832          
 Si12    +1.1711069          +0.99175538         -3.9243241          
 Si13    -0.93984219         -0.6904489          +1.0316986          
 Si14    +0.25742208         -0.59732554         +0.72886768         
 Si15    +0.12939222         -1.7653267          +2.3551051          
 Si16    +1.3470445          +0.25094307         -0.98355754         
 Si17    +0.40186423         +0.54007052         -0.1724632          
 Si18    +0.83563402         +0.96830376         -0.50517407         
 Si19    -0.89544886         -0.23069694         +0.83043827         
 Si20    -0.31744814         -0.4681272          -0.17010867         
 Si21    -0.41411086         -1.4229971          +0.40912212         
 Si22    +1.6772034          +0.26778168         -4.9899385          
 Si23    -0.1337209          +0.15417675         -5.1918987          
 Si24    +0.081418791        +0.72533096         -4.3085045          
 Si25    +0.031390267        -0.038986925        +1.3509688          
 Si26    +1.0840189          +0.68663269         +1.12202            
 Si27    +0.96205186         -0.18822085         +0.9795131          
 Si28    -0.47858796         -0.63827601         +0.52918216         
 Si29    -0.98378459         -1.13127            +0.41952674         
 Si30    -0.90445832         -0.073117315        -0.0012102319       
 Si31    +0.38797718         +0.4957927          -0.35988881         
 Si32    +0.24018951         +0.53127757         -0.41497695         
 Si33    +0.27475488         +0.027065496        -0.13138493         
 Si34    -0.41330328         -0.21755804         -4.1481238          
 Si35    -0.28489174         -0.91311711         -3.7346211          
 Si36    -0.98853807         +0.16479977         -3.8517165          
 C1      -0.62609201         -0.49008608         +0.53326471         
 C2      +0.45317096         +0.2615062          +0.55462264         
 C3      -1.4717411          -1.3796321          +0.22419293         
 C4      +0.42510911         +0.92596022         +0.26341407         
 C5      +0.021620666        +0.89853137         -0.18334004         
 C6      +1.3926248          +1.5535005          -0.055536132        
 C7      -0.5775359          -0.28475881         +0.039401339        
 C8      +0.23682154         -0.13174981         -0.023600576        
 C9      -1.8508847          -0.88797126         +0.23716849         
 C10     +1.1365609          +0.89749522         +3.3979101          
 C11     +0.27042587         +0.46644118         +3.0848706          
 C12     +1.8549163          +0.7259432          +1.8086681          
 C13     -0.68040594         +0.11323173         +1.3503904          
 C14     +0.22328062         -0.13770742         +0.56958931         
 C15     -0.1484672          -0.4429259          -0.55240609         
 C16     +1.197483           -0.24955287         -0.27464081         
 C17     +0.49881045         +0.21946498         +0.3306867          
 C18     -0.098150549        +0.8459409          +0.27418054         
 C19     -0.89693153         -0.15641391         -0.15744179         
 C20     +0.084331599        -0.27614294         +0.015088358        
 C21     -0.32897744         -0.65595987         -0.43391269         
 C22     +1.0784456          +0.050721176        +3.7948621          
 C23     -0.3566596          +0.26113206         +4.2316481          
 C24     -0.21767763         +1.5843092          +2.7545109          
 C25     +0.015175888        -0.43794836         +0.04144128         
 C26     -0.46148903         +0.58150857         +0.42022094         
 C27     -0.34654691         -0.40441409         +0.32595152         
 C28     -0.8144955          +0.34436211         -0.92480383         
 C29     -0.24178295         +0.13334067         -0.2902779          
 C30     -0.66513044         +0.084175652        +0.081455585        
 C31     +0.45678246         +0.29561113         -0.23324001         
 C32     +0.2881112          +0.45642617         -0.32286674         
 C33     -0.1698161          +0.018282698        -0.9441796          
 C34     +0.08219235         +0.55262037         +3.5463872          
 C35     -0.59163682         +0.41774881         +2.2770436          
 C36     -0.5595021          -0.063449891        +3.6297538          


 ><><><><><><><><><><><><><><><><><><><><><><><><><><><><><><><><><><><

 TOTAL-STRESS (KBAR)

 ><><><><><><><><><><><><><><><><><><><><><><><><><><><><><><><><><><><

 -44.163958             +10.141056             +29.431779             
 +10.141056             +134.493069            -11.215786             
 +29.431779             -11.215786             +264.286290            
 TOTAL-PRESSURE: +118.205133 KBAR


 ------------------------------------------------------------------------------------------------
 Energy              Potential           Kinetic             Temperature         Pressure (KBAR)     
 -347.10411          -347.20965          +0.10553771         +312.92143          +122.40021          
 ------------------------------------------------------------------------------------------------

output Pressure for check!
Virtual Pressure is +122.40021 Kbar 
Virial Term is +118.20513 Kbar 
Kenetic Term is +4.1950739 Kbar 


 ><><><><><><><><><><><><><><><><><><><><><><><><><><><><><><><><><><><

 MD STRESS (KBAR)

 ><><><><><><><><><><><><><><><><><><><><><><><><><><><><><><><><><><><

-40.207209     +10.149732     +29.313032     
+10.149732     +138.64211     -11.620989     
+29.313032     -11.620989     +268.76572     




 --------------------------------------------
 !FINAL_ETOT_IS -9448.059155971217 eV
 --------------------------------------------






  |CLASS_NAME---------|NAME---------------|TIME(Sec)-----|CALLS----|AVG------|PER%-------
                       total               +13875         27        +5.1e+02  +1e+02    %
   Driver              driver_line         +13875         1         +1.4e+04  +1e+02    %
   PW_Basis            setup_struc_factor  +1.1648        11        +0.11     +0.0084   %
   ORB_control         read_orb_first      +0.22849       1         +0.23     +0.0016   %
   LCAO_Orbitals       Read_Orbitals       +0.22849       1         +0.23     +0.0016   %
   NOrbital_Lm         extra_uniform       +0.12475       16        +0.0078   +0.0009   %
   Mathzone_Add1       Uni_Deriv_Phi       +0.1097        16        +0.0069   +0.00079  %
   ORB_control         set_orb_tables      +6.6981        1         +6.7      +0.048    %
   ORB_gen_tables      gen_tables          +6.6981        1         +6.7      +0.048    %
   ORB_table_phi       init_Table          +4.9287        1         +4.9      +0.036    %
   ORB_table_phi       cal_ST_Phi12_R      +4.8819        558       +0.0087   +0.035    %
   ORB_table_beta      init_Table_Beta     +1.2796        1         +1.3      +0.0092   %
   ORB_table_beta      VNL_PhiBeta_R       +1.2705        168       +0.0076   +0.0092   %
   ppcell_vl           init_vloc           +0.2469        1         +0.25     +0.0018   %
   Run_MD              md_line             +13868         1         +1.4e+04  +1e+02    %
   Langevin            setup               +1908.1        1         +1.9e+03  +14       %
   MD_func             force_stress        +13868         11        +1.3e+03  +1e+02    %
   ESolver_KS_LCAO     Run                 +12796         11        +1.2e+03  +92       %
   ESolver_KS_LCAO     beforescf           +27.709        11        +2.5      +0.2      %
   ESolver_KS_LCAO     beforesolver        +10.395        11        +0.95     +0.075    %
   ESolver_KS_LCAO     set_matrix_grid     +6.123         11        +0.56     +0.044    %
   atom_arrange        search              +0.10236       11        +0.0093   +0.00074  %
   Grid_Technique      init                +2.9034        11        +0.26     +0.021    %
   Grid_BigCell        grid_expansion_index+0.93039       22        +0.042    +0.0067   %
   Record_adj          for_2d              +2.7747        11        +0.25     +0.02     %
   Grid_Driver         Find_atom           +17.323        715176    +2.4e-05  +0.12     %
   Charge              atomic_rho          +15.278        21        +0.73     +0.11     %
   PW_Basis            recip2real          +3.926         780       +0.005    +0.028    %
   PW_Basis            gathers_scatterp    +3.0619        780       +0.0039   +0.022    %
   Potential           init_pot            +0.77931       11        +0.071    +0.0056   %
   Potential           update_from_charge  +9.3296        143       +0.065    +0.067    %
   Potential           cal_v_eff           +9.2888        143       +0.065    +0.067    %
   H_Hartree_pw        v_hartree           +0.8738        143       +0.0061   +0.0063   %
   PW_Basis            real2recip          +2.6099        1188      +0.0022   +0.019    %
   PW_Basis            gatherp_scatters    +1.237         1188      +0.001    +0.0089   %
   PotXC               cal_v_eff           +8.3354        143       +0.058    +0.06     %
   XC_Functional       v_xc                +8.2973        143       +0.058    +0.06     %
   HSolverLCAO         solve               +12746         132       +97       +92       %
   HamiltLCAO          updateHk            +4759.6        4752      +1        +34       %
   OperatorLCAO        init                +3947.9        9504      +0.42     +28       %
   Veff                contributeHk        +3945.7        4752      +0.83     +28       %
   Gint_interface      cal_gint            +5938.1        275       +22       +43       %
   Gint_interface      cal_gint_vlocal     +2879          132       +22       +21       %
   Gint_k              folding_vl_k        +1066.6        4752      +0.22     +7.7      %
   Gint_k              Distri              +813.56        4752      +0.17     +5.9      %
   Overlap             contributeHR        +5.1065        11        +0.46     +0.037    %
   LCAO_gen_fixedH     calculate_S_no      +5.1065        11        +0.46     +0.037    %
   Ekinetic<OperatorLCAO>contributeHR        +5.2013        11        +0.47     +0.037    %
   Nonlocal<OperatorLCAO>contributeHR        +50.243        11        +4.6      +0.36     %
   LCAO_gen_fixedH     build_Nonlocal_mu_new+159.52        22        +7.3      +1.1      %
   ORB_gen_tables      snap_psibeta_half   +3.5194        1261758   +2.8e-06  +0.025    %
   OperatorLCAO        folding_fixed       +751.12        4752      +0.16     +5.4      %
   LCAO_nnr            folding_fixedH      +744.04        4752      +0.16     +5.4      %
   HSolverLCAO         hamiltSolvePsiK     +1898.4        4752      +0.4      +14       %
   DiagoElpa           elpa_solve          +1882.5        4752      +0.4      +14       %
   ElecStateLCAO       psiToRho            +6088.2        132       +46       +44       %
   elecstate           cal_dm              +153.19        143       +1.1      +1.1      %
   psiMulPsiMpi        pdgemm              +149.03        5148      +0.029    +1.1      %
    Local_Orbital_wfc  wfc_2d_to_grid      +26.588        4752      +0.0056   +0.19     %
   LCAO_Charge         cal_dk_k            +3199.6        132       +24       +23       %
   Record_adj          for_grid            +0.74761       132       +0.0057   +0.0054   %
   Gint_interface      cal_gint_rho        +2513.5        132       +19       +18       %
   Charge              mix_rho             +1.4854        121       +0.012    +0.011    %
   Force_Stress_LCAO   getForceStress      +1071.5        11        +97       +7.7      %
   Forces              cal_force_loc       +0.89459       11        +0.081    +0.0064   %
   Forces              cal_force_ew        +0.88262       11        +0.08     +0.0064   %
   Forces              cal_force_scc       +7.5032        11        +0.68     +0.054    %
   Stress_Func         stress_loc          +6.4115        11        +0.58     +0.046    %
   Stress_Func         stress_ewa          +0.40545       11        +0.037    +0.0029   %
   Stress_Func         stress_gga          +0.39413       11        +0.036    +0.0028   %
   Force_LCAO_k        ftable_k            +1055          11        +96       +7.6      %
   Force_LCAO_k        allocate_k          +142.75        11        +13       +1        %
   Force_LCAO_k        cal_foverlap_k      +29.034        11        +2.6      +0.21     %
   Force_LCAO_k        cal_edm_2d          +28.047        11        +2.5      +0.2      %
   Local_Orbital_Chargecal_dm_R            +12.59         22        +0.57     +0.091    %
   Force_LCAO_k        cal_ftvnl_dphi_k    +0.32651       11        +0.03     +0.0024   %
   Force_LCAO_k        cal_fvl_dphi_k      +545.65        11        +50       +3.9      %
   Gint_interface      cal_gint_force      +545.65        11        +50       +3.9      %
   Force_LCAO_k        cal_fvnl_dbeta_k_new+293.27        11        +27       +2.1      %
 ----------------------------------------------------------------------------------------

 CLASS_NAME---------|NAME---------------|MEMORY(MB)--------
                                         +2.896e+04
 ORB_table_phi       Jl(x)               +138.2         
 allocate_pvpR       pvpR_reduced        +93.9          
 LocalOrbital_Charge Density_Matrix      +93.9          
 stress_lo           dSR                 +75.71         
 force_lo            dS                  +37.85         
 force_lo            dTVNL               +37.85         
 Force_LCAO_k        dm2d                +12.62         
 ORB_table_phi       Table_SR&TR         +10.58         
 Grid_Meshcell       index2normal        +8.288         
 Grid_Meshcell       index2ucell         +8.288         
 Charge_Mixing       Rrho                +7.031         
 Charge_Mixing       dRrho               +6.152         
 Charge_Mixing       drho                +6.152         
 LocalOrbital_Coef   wfc_k_grid          +4.181         
 init_meshball       meshball_pos        +3.537         
 atoms_on_grid       which_atom          +2.837         
 atoms_on_grid       which_bigcell       +2.837         
 atoms_on_grid       which_unitcell      +2.837         
 ORB_table_beta      Table_NR            +2.045         
 PW_Basis            struc_fac           +1.271         
 ----------------------------------------------------------

 Start  Time  : Mon May 22 14:16:29 2023
 Finish Time  : Mon May 22 18:07:45 2023
 Total  Time  : 3 h 51 mins 16 secs 
