WARNING: Total thread number on this node mismatches with hardware availability. This may cause poor performance.
Info: Local MPI proc number: 16,OpenMP thread number: 1,Total thread number: 16,Local thread limit: 32
 *********************************************************
 *                                                       *
 *                  WELCOME TO ABACUS v3.0               *
 *                                                       *
 *            'Atomic-orbital Based Ab-initio            *
 *                  Computation at UStc'                 *
 *                                                       *
 *          Website: http://abacus.ustc.edu.cn/          *
 *                                                       *
 *********************************************************
 Mon May 22 14:16:29 2023
 MAKE THE DIR         : OUT.ABACUS/
 MAKE THE STRU DIR    : OUT.ABACUS/STRU/
 UNIFORM GRID DIM     : 120 * 120 * 128
 UNIFORM GRID DIM(BIG): 60 * 60 * 64
 DONE(0.120737   SEC) : SETUP UNITCELL
 DONE(0.130768   SEC) : INIT K-POINTS
 ---------------------------------------------------------
 Molecular Dynamics simulations
 ---------------------------------------------------------
 ENSEMBLE                 : Langevin
 Time interval(fs)        : 1
 ---------------------------------------------------------
 SPIN    KPOINTS         PROCESSORS  NBASE       
 1       36              16          1584        
 ---------------------------------------------------------
 Use Systematically Improvable Atomic bases
 ---------------------------------------------------------
 ELEMENT ORBITALS        NBASE       NATOM       XC          
 Si      3s3p2d-9au      22          36          
 C       3s3p2d-9au      22          36          
 ---------------------------------------------------------
 Initial plane wave basis and FFT box
 ---------------------------------------------------------
--------------------------------- INITVEL DONE ------------------------------------
 -------------------------------------------
 STEP OF MOLECULAR DYNAMICS : 0
 -------------------------------------------
 START CHARGE      : atomic
 DONE(12.0269    SEC) : INIT SCF
 ITER   ETOT(eV)       EDIFF(eV)      DRHO       TIME(s)    
 GE1    -9.379421e+03  0.000000e+00   2.768e-01  1.319e+02  
 GE2    -9.438516e+03  -5.909522e+01  1.440e-01  1.267e+02  
 GE3    -9.452229e+03  -1.371247e+01  2.386e-02  1.212e+02  
 GE4    -9.450979e+03  1.249697e+00   2.739e-02  1.237e+02  
 GE5    -9.453040e+03  -2.060598e+00  3.873e-03  1.223e+02  
 GE6    -9.453081e+03  -4.115916e-02  2.407e-03  1.232e+02  
 GE7    -9.453102e+03  -2.085610e-02  1.166e-03  1.269e+02  
 GE8    -9.453107e+03  -5.224246e-03  3.323e-04  1.257e+02  
 GE9    -9.453107e+03  -3.570773e-04  9.578e-05  1.262e+02  
 GE10   -9.453107e+03  -1.678659e-05  6.363e-05  1.216e+02  
 GE11   -9.453107e+03  -1.263960e-05  2.440e-05  1.235e+02  
 GE12   -9.453107e+03  -2.579725e-06  1.494e-05  1.225e+02  
 GE13   -9.453107e+03  -7.698600e-07  5.719e-06  1.236e+02  
 GE14   -9.453107e+03  -1.023866e-07  1.617e-06  1.277e+02  
 GE15   -9.453107e+03  -7.212676e-09  1.073e-06  1.240e+02  
 GE16   -9.453107e+03  -3.243616e-09  2.863e-07  1.256e+02  
 ><><><><><><><><><><><><><><><><><><><><><><
 TOTAL-STRESS (KBAR):
 ><><><><><><><><><><><><><><><><><><><><><><
 1.208e+02      5.638e+01      2.444e+01      
 5.638e+01      1.601e+02      -4.031e+01     
 2.444e+01      -4.031e+01     7.878e+01      
 TOTAL-PRESSURE: 1.199e+02 KBAR
 ------------------------------------------------------------------------------------------------
 Energy              Potential           Kinetic             Temperature         Pressure (KBAR)     
 -3.474e+02          -3.474e+02          3.373e-03           1.000e+01           1.200e+02           
 ------------------------------------------------------------------------------------------------
 -------------------------------------------
 STEP OF MOLECULAR DYNAMICS : 1
 -------------------------------------------
 DONE(2.123e+03  SEC) : INIT SCF
 ITER   ETOT(eV)       EDIFF(eV)      DRHO       TIME(s)    
 GE1    -9.453141e+03  0.000000e+00   4.785e-04  1.288e+02  
 GE2    -9.453141e+03  5.140322e-05   2.592e-04  1.226e+02  
 GE3    -9.453141e+03  -1.316989e-04  2.633e-04  1.243e+02  
 GE4    -9.453141e+03  -2.251433e-04  6.667e-05  1.273e+02  
 GE5    -9.453141e+03  -1.288577e-05  4.615e-05  1.215e+02  
 GE6    -9.453141e+03  -8.754903e-06  1.695e-05  1.240e+02  
 GE7    -9.453141e+03  -9.867445e-07  6.157e-06  1.217e+02  
 GE8    -9.453141e+03  -1.260463e-07  1.292e-06  1.230e+02  
 GE9    -9.453141e+03  -2.674398e-09  5.560e-07  1.217e+02  
 ><><><><><><><><><><><><><><><><><><><><><><
 TOTAL-STRESS (KBAR):
 ><><><><><><><><><><><><><><><><><><><><><><
 1.207e+02      5.627e+01      2.431e+01      
 5.627e+01      1.598e+02      -4.031e+01     
 2.431e+01      -4.031e+01     7.886e+01      
 TOTAL-PRESSURE: 1.198e+02 KBAR
 ------------------------------------------------------------------------------------------------
 Energy              Potential           Kinetic             Temperature         Pressure (KBAR)     
 -3.474e+02          -3.474e+02          7.176e-03           2.128e+01           1.201e+02           
 ------------------------------------------------------------------------------------------------
 -------------------------------------------
 STEP OF MOLECULAR DYNAMICS : 2
 -------------------------------------------
 DONE(3.351e+03  SEC) : INIT SCF
 ITER   ETOT(eV)       EDIFF(eV)      DRHO       TIME(s)    
 GE1    -9.453142e+03  0.000000e+00   1.611e-03  1.149e+02  
 GE2    -9.453142e+03  7.271955e-05   9.676e-04  1.085e+02  
 GE3    -9.453144e+03  -2.296220e-03  8.025e-04  1.085e+02  
 GE4    -9.453146e+03  -1.867187e-03  2.279e-04  1.083e+02  
 GE5    -9.453146e+03  -1.668763e-04  1.665e-04  1.084e+02  
 GE6    -9.453146e+03  -1.064064e-04  5.504e-05  1.084e+02  
 GE7    -9.453146e+03  -9.869813e-06  2.351e-05  1.084e+02  
 GE8    -9.453146e+03  -1.817107e-06  4.941e-06  1.083e+02  
 GE9    -9.453146e+03  -6.880581e-08  2.134e-06  1.084e+02  
 GE10   -9.453146e+03  -4.428456e-09  9.721e-07  1.084e+02  
 ><><><><><><><><><><><><><><><><><><><><><><
 TOTAL-STRESS (KBAR):
 ><><><><><><><><><><><><><><><><><><><><><><
 1.206e+02      5.657e+01      2.372e+01      
 5.657e+01      1.593e+02      -4.052e+01     
 2.372e+01      -4.052e+01     7.925e+01      
 TOTAL-PRESSURE: 1.197e+02 KBAR
 ------------------------------------------------------------------------------------------------
 Energy              Potential           Kinetic             Temperature         Pressure (KBAR)     
 -3.474e+02          -3.474e+02          1.885e-02           5.588e+01           1.205e+02           
 ------------------------------------------------------------------------------------------------
 -------------------------------------------
 STEP OF MOLECULAR DYNAMICS : 3
 -------------------------------------------
 DONE(4.549e+03  SEC) : INIT SCF
 ITER   ETOT(eV)       EDIFF(eV)      DRHO       TIME(s)    
 GE1    -9.453151e+03  0.000000e+00   1.978e-03  1.145e+02  
 GE2    -9.453148e+03  2.598121e-03   1.283e-03  1.081e+02  
 GE3    -9.453152e+03  -3.578053e-03  1.243e-03  1.081e+02  
 GE4    -9.453157e+03  -5.356973e-03  3.369e-04  1.080e+02  
 GE5    -9.453157e+03  -3.729746e-04  1.814e-04  1.082e+02  
 GE6    -9.453158e+03  -1.172578e-04  6.445e-05  1.080e+02  
 GE7    -9.453158e+03  -1.357851e-05  2.844e-05  1.080e+02  
 GE8    -9.453158e+03  -2.681454e-06  6.232e-06  1.081e+02  
 GE9    -9.453158e+03  -1.153332e-07  2.835e-06  1.079e+02  
 GE10   -9.453158e+03  -2.588396e-08  1.414e-06  1.081e+02  
 GE11   -9.453158e+03  -4.943537e-09  6.342e-07  1.081e+02  
 ><><><><><><><><><><><><><><><><><><><><><><
 TOTAL-STRESS (KBAR):
 ><><><><><><><><><><><><><><><><><><><><><><
 1.220e+02      5.736e+01      2.318e+01      
 5.736e+01      1.578e+02      -3.998e+01     
 2.318e+01      -3.998e+01     7.911e+01      
 TOTAL-PRESSURE: 1.196e+02 KBAR
 ------------------------------------------------------------------------------------------------
 Energy              Potential           Kinetic             Temperature         Pressure (KBAR)     
 -3.474e+02          -3.474e+02          2.414e-02           7.159e+01           1.206e+02           
 ------------------------------------------------------------------------------------------------
 -------------------------------------------
 STEP OF MOLECULAR DYNAMICS : 4
 -------------------------------------------
 DONE(5.851e+03  SEC) : INIT SCF
 ITER   ETOT(eV)       EDIFF(eV)      DRHO       TIME(s)    
 GE1    -9.453147e+03  0.000000e+00   2.534e-03  1.147e+02  
 GE2    -9.453147e+03  4.323050e-04   1.450e-03  1.083e+02  
 GE3    -9.453152e+03  -4.921733e-03  1.277e-03  1.082e+02  
 GE4    -9.453157e+03  -5.058392e-03  3.410e-04  1.084e+02  
 GE5    -9.453157e+03  -3.239795e-04  2.290e-04  1.082e+02  
 GE6    -9.453157e+03  -2.212154e-04  9.366e-05  1.081e+02  
 GE7    -9.453157e+03  -3.318878e-05  3.835e-05  1.081e+02  
 GE8    -9.453157e+03  -4.887144e-06  6.807e-06  1.082e+02  
 GE9    -9.453157e+03  -1.130471e-07  3.640e-06  1.084e+02  
 GE10   -9.453157e+03  -5.206955e-08  1.684e-06  1.086e+02  
 GE11   -9.453157e+03  -8.310896e-09  7.077e-07  1.083e+02  
 ><><><><><><><><><><><><><><><><><><><><><><
 TOTAL-STRESS (KBAR):
 ><><><><><><><><><><><><><><><><><><><><><><
 1.216e+02      5.788e+01      2.333e+01      
 5.788e+01      1.587e+02      -3.992e+01     
 2.333e+01      -3.992e+01     7.892e+01      
 TOTAL-PRESSURE: 1.198e+02 KBAR
 ------------------------------------------------------------------------------------------------
 Energy              Potential           Kinetic             Temperature         Pressure (KBAR)     
 -3.474e+02          -3.474e+02          3.930e-02           1.165e+02           1.213e+02           
 ------------------------------------------------------------------------------------------------
 -------------------------------------------
 STEP OF MOLECULAR DYNAMICS : 5
 -------------------------------------------
 DONE(7.155e+03  SEC) : INIT SCF
 ITER   ETOT(eV)       EDIFF(eV)      DRHO       TIME(s)    
 GE1    -9.453166e+03  0.000000e+00   2.813e-03  1.148e+02  
 GE2    -9.453161e+03  4.748792e-03   1.757e-03  1.085e+02  
 GE3    -9.453170e+03  -8.461493e-03  1.681e-03  1.086e+02  
 GE4    -9.453178e+03  -8.878066e-03  3.766e-04  1.120e+02  
 GE5    -9.453179e+03  -3.478223e-04  2.706e-04  1.142e+02  
 GE6    -9.453179e+03  -3.163249e-04  1.104e-04  1.152e+02  
 GE7    -9.453179e+03  -4.311967e-05  4.200e-05  1.103e+02  
 GE8    -9.453179e+03  -5.717332e-06  6.826e-06  1.085e+02  
 GE9    -9.453179e+03  -1.025629e-07  5.326e-06  1.085e+02  
 GE10   -9.453179e+03  -1.279194e-07  1.943e-06  1.084e+02  
 GE11   -9.453179e+03  -1.254600e-08  5.815e-07  1.200e+02  
 ><><><><><><><><><><><><><><><><><><><><><><
 TOTAL-STRESS (KBAR):
 ><><><><><><><><><><><><><><><><><><><><><><
 1.227e+02      5.869e+01      2.309e+01      
 5.869e+01      1.564e+02      -3.994e+01     
 2.309e+01      -3.994e+01     8.017e+01      
 TOTAL-PRESSURE: 1.198e+02 KBAR
 ------------------------------------------------------------------------------------------------
 Energy              Potential           Kinetic             Temperature         Pressure (KBAR)     
 -3.474e+02          -3.474e+02          4.558e-02           1.352e+02           1.216e+02           
 ------------------------------------------------------------------------------------------------
 -------------------------------------------
 STEP OF MOLECULAR DYNAMICS : 6
 -------------------------------------------
 DONE(8.503e+03  SEC) : INIT SCF
 ITER   ETOT(eV)       EDIFF(eV)      DRHO       TIME(s)    
 GE1    -9.453199e+03  0.000000e+00   2.900e-03  1.163e+02  
 GE2    -9.453201e+03  -1.400823e-03  1.679e-03  1.084e+02  
 GE3    -9.453207e+03  -6.519635e-03  1.323e-03  1.081e+02  
 GE4    -9.453212e+03  -4.713977e-03  3.366e-04  1.144e+02  
 GE5    -9.453212e+03  -2.474671e-04  1.912e-04  1.299e+02  
 GE6    -9.453212e+03  -1.267848e-04  9.092e-05  1.291e+02  
 GE7    -9.453212e+03  -2.355937e-05  2.970e-05  1.136e+02  
 GE8    -9.453212e+03  -4.042305e-06  1.257e-05  1.082e+02  
 GE9    -9.453212e+03  -5.411363e-07  2.713e-06  1.083e+02  
 GE10   -9.453212e+03  -1.959472e-08  1.038e-06  1.083e+02  
 GE11   -9.453212e+03  -5.073467e-10  6.088e-07  1.085e+02  
 ><><><><><><><><><><><><><><><><><><><><><><
 TOTAL-STRESS (KBAR):
 ><><><><><><><><><><><><><><><><><><><><><><
 1.220e+02      5.874e+01      2.350e+01      
 5.874e+01      1.565e+02      -3.980e+01     
 2.350e+01      -3.980e+01     8.027e+01      
 TOTAL-PRESSURE: 1.196e+02 KBAR
 ------------------------------------------------------------------------------------------------
 Energy              Potential           Kinetic             Temperature         Pressure (KBAR)     
 -3.473e+02          -3.474e+02          6.335e-02           1.878e+02           1.221e+02           
 ------------------------------------------------------------------------------------------------
 -------------------------------------------
 STEP OF MOLECULAR DYNAMICS : 7
 -------------------------------------------
 DONE(9.862e+03  SEC) : INIT SCF
 ITER   ETOT(eV)       EDIFF(eV)      DRHO       TIME(s)    
 GE1    -9.453116e+03  0.000000e+00   3.496e-03  1.148e+02  
 GE2    -9.453111e+03  4.849247e-03   1.925e-03  1.108e+02  
 GE3    -9.453120e+03  -9.093476e-03  1.888e-03  1.333e+02  
 GE4    -9.453133e+03  -1.272007e-02  4.790e-04  1.331e+02  
 GE5    -9.453133e+03  -7.160730e-04  3.266e-04  1.333e+02  
 GE6    -9.453134e+03  -4.156013e-04  1.248e-04  1.333e+02  
 GE7    -9.453134e+03  -5.123942e-05  4.399e-05  1.332e+02  
 GE8    -9.453134e+03  -7.023451e-06  1.108e-05  1.331e+02  
 GE9    -9.453134e+03  -3.305101e-07  6.324e-06  1.332e+02  
 GE10   -9.453134e+03  -1.667206e-07  2.455e-06  1.333e+02  
 GE11   -9.453134e+03  -1.945860e-08  8.343e-07  1.330e+02  
 ><><><><><><><><><><><><><><><><><><><><><><
 TOTAL-STRESS (KBAR):
 ><><><><><><><><><><><><><><><><><><><><><><
 1.218e+02      6.062e+01      2.442e+01      
 6.062e+01      1.580e+02      -4.029e+01     
 2.442e+01      -4.029e+01     8.075e+01      
 TOTAL-PRESSURE: 1.202e+02 KBAR
 ------------------------------------------------------------------------------------------------
 Energy              Potential           Kinetic             Temperature         Pressure (KBAR)     
 -3.473e+02          -3.474e+02          7.694e-02           2.281e+02           1.232e+02           
 ------------------------------------------------------------------------------------------------
 -------------------------------------------
 STEP OF MOLECULAR DYNAMICS : 8
 -------------------------------------------
 DONE(1.141e+04  SEC) : INIT SCF
 ITER   ETOT(eV)       EDIFF(eV)      DRHO       TIME(s)    
 GE1    -9.453103e+03  0.000000e+00   3.903e-03  1.400e+02  
 GE2    -9.453105e+03  -1.513220e-03  2.290e-03  1.331e+02  
 GE3    -9.453118e+03  -1.318861e-02  1.807e-03  1.331e+02  
 GE4    -9.453128e+03  -9.812870e-03  4.731e-04  1.330e+02  
 GE5    -9.453128e+03  -5.018117e-04  2.639e-04  1.326e+02  
 GE6    -9.453128e+03  -2.558435e-04  1.399e-04  1.326e+02  
 GE7    -9.453128e+03  -7.474171e-05  5.555e-05  1.335e+02  
 GE8    -9.453128e+03  -1.284174e-05  1.319e-05  1.330e+02  
 GE9    -9.453128e+03  -6.008919e-07  4.938e-06  1.329e+02  
 GE10   -9.453128e+03  -6.405252e-08  2.015e-06  1.326e+02  
 GE11   -9.453128e+03  -1.630315e-08  1.251e-06  1.330e+02  
 GE12   -9.453128e+03  -4.918788e-09  4.218e-07  1.236e+02  
 ><><><><><><><><><><><><><><><><><><><><><><
 TOTAL-STRESS (KBAR):
 ><><><><><><><><><><><><><><><><><><><><><><
 1.198e+02      6.077e+01      2.454e+01      
 6.077e+01      1.581e+02      -4.118e+01     
 2.454e+01      -4.118e+01     8.221e+01      
 TOTAL-PRESSURE: 1.200e+02 KBAR
 ------------------------------------------------------------------------------------------------
 Energy              Potential           Kinetic             Temperature         Pressure (KBAR)     
 -3.473e+02          -3.474e+02          7.448e-02           2.208e+02           1.230e+02           
 ------------------------------------------------------------------------------------------------
 -------------------------------------------
 STEP OF MOLECULAR DYNAMICS : 9
 -------------------------------------------
 DONE(1.311e+04  SEC) : INIT SCF
 ITER   ETOT(eV)       EDIFF(eV)      DRHO       TIME(s)    
 GE1    -9.453113e+03  0.000000e+00   3.741e-03  1.146e+02  
 GE2    -9.453108e+03  4.848864e-03   2.347e-03  1.082e+02  
 GE3    -9.453125e+03  -1.647398e-02  2.094e-03  1.083e+02  
 GE4    -9.453136e+03  -1.179551e-02  4.116e-04  1.084e+02  
 GE5    -9.453137e+03  -3.195503e-04  2.484e-04  1.084e+02  
 GE6    -9.453137e+03  -2.141278e-04  1.318e-04  1.084e+02  
 GE7    -9.453137e+03  -6.577489e-05  5.762e-05  1.084e+02  
 GE8    -9.453137e+03  -1.342965e-05  1.241e-05  1.087e+02  
 GE9    -9.453137e+03  -4.893978e-07  4.894e-06  1.244e+02  
 GE10   -9.453137e+03  -6.831702e-08  1.902e-06  1.276e+02  
 GE11   -9.453137e+03  -1.304562e-08  1.085e-06  1.278e+02  
 GE12   -9.453137e+03  -2.774939e-09  4.110e-07  1.275e+02  
 ><><><><><><><><><><><><><><><><><><><><><><
 TOTAL-STRESS (KBAR):
 ><><><><><><><><><><><><><><><><><><><><><><
 1.191e+02      5.996e+01      2.379e+01      
 5.996e+01      1.571e+02      -4.040e+01     
 2.379e+01      -4.040e+01     8.301e+01      
 TOTAL-PRESSURE: 1.198e+02 KBAR
 ------------------------------------------------------------------------------------------------
 Energy              Potential           Kinetic             Temperature         Pressure (KBAR)     
 -3.473e+02          -3.474e+02          7.857e-02           2.330e+02           1.229e+02           
 ------------------------------------------------------------------------------------------------
 -------------------------------------------
 STEP OF MOLECULAR DYNAMICS : 10
 -------------------------------------------
 DONE(1.461e+04  SEC) : INIT SCF
 ITER   ETOT(eV)       EDIFF(eV)      DRHO       TIME(s)    
 GE1    -9.453120e+03  0.000000e+00   3.731e-03  1.340e+02  
 GE2    -9.453117e+03  3.545638e-03   2.206e-03  1.277e+02  
 GE3    -9.453130e+03  -1.288837e-02  1.933e-03  1.280e+02  
 GE4    -9.453141e+03  -1.181815e-02  5.388e-04  1.273e+02  
 GE5    -9.453142e+03  -9.097794e-04  3.903e-04  1.278e+02  
 GE6    -9.453143e+03  -5.692824e-04  1.324e-04  1.279e+02  
 GE7    -9.453143e+03  -5.756172e-05  5.627e-05  1.269e+02  
 GE8    -9.453143e+03  -1.101619e-05  1.023e-05  1.205e+02  
 GE9    -9.453143e+03  -2.507592e-07  4.405e-06  1.143e+02  
 GE10   -9.453143e+03  -5.564263e-08  2.161e-06  1.087e+02  
 GE11   -9.453143e+03  -2.003865e-08  1.231e-06  1.088e+02  
 GE12   -9.453143e+03  -4.569214e-09  3.489e-07  1.086e+02  
 ><><><><><><><><><><><><><><><><><><><><><><
 TOTAL-STRESS (KBAR):
 ><><><><><><><><><><><><><><><><><><><><><><
 1.161e+02      5.856e+01      2.430e+01      
 5.856e+01      1.586e+02      -4.107e+01     
 2.430e+01      -4.107e+01     8.447e+01      
 TOTAL-PRESSURE: 1.197e+02 KBAR
 ------------------------------------------------------------------------------------------------
 Energy              Potential           Kinetic             Temperature         Pressure (KBAR)     
 -3.473e+02          -3.474e+02          1.039e-01           3.079e+02           1.239e+02           
 ------------------------------------------------------------------------------------------------

  |CLASS_NAME---------|NAME---------------|TIME(Sec)-----|CALLS----|AVG------|PER%-------
                       total               16172          27        6e+02     1e+02     %
   Driver              driver_line         16172          1         1.6e+04   1e+02     %
   PW_Basis            setup_struc_factor  1.1715         11        0.11      0.0072    %
   ORB_control         read_orb_first      0.24546        1         0.25      0.0015    %
   LCAO_Orbitals       Read_Orbitals       0.24546        1         0.25      0.0015    %
   NOrbital_Lm         extra_uniform       0.13169        16        0.0082    0.00081   %
   Mathzone_Add1       Uni_Deriv_Phi       0.11695        16        0.0073    0.00072   %
   ORB_control         set_orb_tables      8.3303         1         8.3       0.052     %
   ORB_gen_tables      gen_tables          8.3303         1         8.3       0.052     %
   ORB_table_phi       init_Table          6.14           1         6.1       0.038     %
   ORB_table_phi       cal_ST_Phi12_R      6.0901         558       0.011     0.038     %
   ORB_table_beta      init_Table_Beta     1.6762         1         1.7       0.01      %
   ORB_table_beta      VNL_PhiBeta_R       1.6644         168       0.0099    0.01      %
   ppcell_vl           init_vloc           0.25852        1         0.26      0.0016    %
   Run_MD              md_line             16163          1         1.6e+04   1e+02     %
   Langevin            setup               2111.7         1         2.1e+03   13        %
   MD_func             force_stress        16163          11        1.5e+03   1e+02     %
   ESolver_KS_LCAO     Run                 14963          11        1.4e+03   93        %
   ESolver_KS_LCAO     beforescf           27.497         11        2.5       0.17      %
   ESolver_KS_LCAO     beforesolver        11.592         11        1.1       0.072     %
   ESolver_KS_LCAO     set_matrix_grid     6.873          11        0.62      0.042     %
   atom_arrange        search              0.1057         11        0.0096    0.00065   %
   Grid_Technique      init                3.5998         11        0.33      0.022     %
   Grid_BigCell        grid_expansion_index1.0399         22        0.047     0.0064    %
   Record_adj          for_2d              2.7794         11        0.25      0.017     %
   Grid_Driver         Find_atom           19.848         683208    2.9e-05   0.12      %
   Charge              atomic_rho          13.532         21        0.64      0.084     %
   PW_Basis            recip2real          2.4797         750       0.0033    0.015     %
   PW_Basis            gathers_scatterp    1.3295         750       0.0018    0.0082    %
   Potential           init_pot            1.0195         11        0.093     0.0063    %
   Potential           update_from_charge  11.86          137       0.087     0.073     %
   Potential           cal_v_eff           11.804         137       0.086     0.073     %
   H_Hartree_pw        v_hartree           1.1945         137       0.0087    0.0074    %
   PW_Basis            real2recip          4.1473         1140      0.0036    0.026     %
   PW_Basis            gatherp_scatters    2.2126         1140      0.0019    0.014     %
   PotXC               cal_v_eff           10.509         137       0.077     0.065     %
   XC_Functional       v_xc                10.454         137       0.076     0.065     %
   HSolverLCAO         solve               14910          126       1.2e+02   92        %
   HamiltLCAO          updateHk            5609.4         4536      1.2       35        %
   OperatorLCAO        init                4818.8         9072      0.53      30        %
   Veff                contributeHk        4815.8         4536      1.1       30        %
   Gint_interface      cal_gint            7361.4         263       28        46        %
   Gint_interface      cal_gint_vlocal     3669.3         126       29        23        %
   Gint_k              folding_vl_k        1146.6         4536      0.25      7.1       %
   Gint_k              Distri              853.33         4536      0.19      5.3       %
   Overlap             contributeHR        5.403          11        0.49      0.033     %
   LCAO_gen_fixedH     calculate_S_no      5.403          11        0.49      0.033     %
   Ekinetic<OperatorLCAO>contributeHR        5.5087         11        0.5       0.034     %
   Nonlocal<OperatorLCAO>contributeHR        53.164         11        4.8       0.33      %
   LCAO_gen_fixedH     build_Nonlocal_mu_new169.92         22        7.7       1.1       %
   ORB_gen_tables      snap_psibeta_half   3.6358         1271778   2.9e-06   0.022     %
   OperatorLCAO        folding_fixed       726.53         4536      0.16      4.5       %
   LCAO_nnr            folding_fixedH      718.19         4536      0.16      4.4       %
   HSolverLCAO         hamiltSolvePsiK     2062.2         4536      0.45      13        %
   DiagoElpa           elpa_solve          2043.2         4536      0.45      13        %
   ElecStateLCAO       psiToRho            7238.1         126       57        45        %
   elecstate           cal_dm              176.91         137       1.3       1.1       %
   psiMulPsiMpi        pdgemm              170.97         4932      0.035     1.1       %
    Local_Orbital_wfc  wfc_2d_to_grid      33.924         4536      0.0075    0.21      %
   LCAO_Charge         cal_dk_k            3683.3         126       29        23        %
   Record_adj          for_grid            0.73289        126       0.0058    0.0045    %
   Gint_interface      cal_gint_rho        3043.6         126       24        19        %
   Charge              mix_rho             1.7077         115       0.015     0.011     %
   Force_Stress_LCAO   getForceStress      1200.4         11        1.1e+02   7.4       %
   Forces              cal_force_loc       0.90142        11        0.082     0.0056    %
   Forces              cal_force_ew        0.87273        11        0.079     0.0054    %
   Forces              cal_force_scc       7.6573         11        0.7       0.047     %
   Stress_Func         stress_loc          6.3969         11        0.58      0.04      %
   Stress_Func         stress_ewa          0.39823        11        0.036     0.0025    %
   Stress_Func         stress_gga          0.48136        11        0.044     0.003     %
   Force_LCAO_k        ftable_k            1183.6         11        1.1e+02   7.3       %
   Force_LCAO_k        allocate_k          152.28         11        14        0.94      %
   Force_LCAO_k        cal_foverlap_k      31.502         11        2.9       0.19      %
   Force_LCAO_k        cal_edm_2d          30.457         11        2.8       0.19      %
   Local_Orbital_Chargecal_dm_R            12.911         22        0.59      0.08      %
   Force_LCAO_k        cal_ftvnl_dphi_k    0.33479        11        0.03      0.0021    %
   Force_LCAO_k        cal_fvl_dphi_k      648.52         11        59        4         %
   Gint_interface      cal_gint_force      648.52         11        59        4         %
   Force_LCAO_k        cal_fvnl_dbeta_k_new304.85         11        28        1.9       %
 ----------------------------------------------------------------------------------------

 START  Time  : Mon May 22 14:16:29 2023
 FINISH Time  : Mon May 22 18:46:02 2023
 TOTAL  Time  : 1.6e+04
 SEE INFORMATION IN : OUT.ABACUS/
