                                                                                     
                             WELCOME TO ABACUS v3.0                                  
                                                                                     
               'Atomic-orbital Based Ab-initio Computation at UStc'                  
                                                                                     
                     Website: http://abacus.ustc.edu.cn/                             
                                                                                     
    Version: Parallel, in development
    Processor Number is 16
    Start Time is Mon May 22 14:16:30 2023
                                                                                     
 ------------------------------------------------------------------------------------

 READING GENERAL INFORMATION
                           global_out_dir = OUT.ABACUS/
                           global_in_card = INPUT
                               pseudo_dir = 
                              orbital_dir = 
                                    DRANK = 1
                                    DSIZE = 16
                                   DCOLOR = 1
                                    GRANK = 1
                                    GSIZE = 1
 The esolver type has been set to : ksdft_lcao




 >>>>>>>>>>>>>>>>>>>>>>>>>>>>>>>>>>>>>>>>>>>>>>>>>>>>>>>>>>>>>>>>>>>>>>
 |                                                                    |
 | Reading atom information in unitcell:                              |
 | From the input file and the structure file we know the number of   |
 | different elments in this unitcell, then we list the detail        |
 | information for each element, especially the zeta and polar atomic |
 | orbital number for each element. The total atom number is counted. |
 | We calculate the nearest atom distance for each atom and show the  |
 | Cartesian and Direct coordinates for each atom. We list the file   |
 | address for atomic orbitals. The volume and the lattice vectors    |
 | in real and reciprocal space is also shown.                        |
 |                                                                    |
 <<<<<<<<<<<<<<<<<<<<<<<<<<<<<<<<<<<<<<<<<<<<<<<<<<<<<<<<<<<<<<<<<<<<<<




 READING UNITCELL INFORMATION
                                    ntype = 2
                 atom label for species 1 = Si
                 atom label for species 2 = C
                  lattice constant (Bohr) = 1.88973
              lattice constant (Angstrom) = 1

 READING ATOM TYPE 1
                               atom label = Si
                      L=0, number of zeta = 3
                      L=1, number of zeta = 3
                      L=2, number of zeta = 2
             number of atom for this type = 36
                      start magnetization = FALSE
                      start magnetization = FALSE
                      start magnetization = FALSE
                      start magnetization = FALSE
                      start magnetization = FALSE
                      start magnetization = FALSE
                      start magnetization = FALSE
                      start magnetization = FALSE
                      start magnetization = FALSE
                      start magnetization = FALSE
                      start magnetization = FALSE
                      start magnetization = FALSE
                      start magnetization = FALSE
                      start magnetization = FALSE
                      start magnetization = FALSE
                      start magnetization = FALSE
                      start magnetization = FALSE
                      start magnetization = FALSE
                      start magnetization = FALSE
                      start magnetization = FALSE
                      start magnetization = FALSE
                      start magnetization = FALSE
                      start magnetization = FALSE
                      start magnetization = FALSE
                      start magnetization = FALSE
                      start magnetization = FALSE
                      start magnetization = FALSE
                      start magnetization = FALSE
                      start magnetization = FALSE
                      start magnetization = FALSE
                      start magnetization = FALSE
                      start magnetization = FALSE
                      start magnetization = FALSE
                      start magnetization = FALSE
                      start magnetization = FALSE
                      start magnetization = FALSE

 READING ATOM TYPE 2
                               atom label = C
                      L=0, number of zeta = 3
                      L=1, number of zeta = 3
                      L=2, number of zeta = 2
             number of atom for this type = 36
                      start magnetization = FALSE
                      start magnetization = FALSE
                      start magnetization = FALSE
                      start magnetization = FALSE
                      start magnetization = FALSE
                      start magnetization = FALSE
                      start magnetization = FALSE
                      start magnetization = FALSE
                      start magnetization = FALSE
                      start magnetization = FALSE
                      start magnetization = FALSE
                      start magnetization = FALSE
                      start magnetization = FALSE
                      start magnetization = FALSE
                      start magnetization = FALSE
                      start magnetization = FALSE
                      start magnetization = FALSE
                      start magnetization = FALSE
                      start magnetization = FALSE
                      start magnetization = FALSE
                      start magnetization = FALSE
                      start magnetization = FALSE
                      start magnetization = FALSE
                      start magnetization = FALSE
                      start magnetization = FALSE
                      start magnetization = FALSE
                      start magnetization = FALSE
                      start magnetization = FALSE
                      start magnetization = FALSE
                      start magnetization = FALSE
                      start magnetization = FALSE
                      start magnetization = FALSE
                      start magnetization = FALSE
                      start magnetization = FALSE
                      start magnetization = FALSE
                      start magnetization = FALSE

                        TOTAL ATOM NUMBER = 72

 CARTESIAN COORDINATES ( UNIT = 1.88973 Bohr ).
         atom                   x                   y                   z                 mag                  vx                  vy                  vz
     tauc_Si1     0.0264448557081       1.80650147739       2.53209591168                   0                   0                   0                   0
     tauc_Si2       3.20030235812       7.12922746034       2.49097172664                   0                   0                   0                   0
     tauc_Si3      -3.00300019727       7.20760645904       2.50656878404                   0                   0                   0                   0
     tauc_Si4       4.74313172912       6.23751836093       5.03511568941                   0                   0                   0                   0
     tauc_Si5       1.57447871545      0.907186735359        5.0755271492                   0                   0                   0                   0
     tauc_Si6       7.77290801913      0.826860432176       5.04678735191                   0                   0                   0                   0
     tauc_Si7     0.0457340327123       1.81586801078       7.62212819333                   0                   0                   0                   0
     tauc_Si8        3.2180304303       7.16230144112       7.58403237062                   0                   0                   0                   0
     tauc_Si9      -2.98103407957       7.23060258884       7.59442750877                   0                   0                   0                   0
    tauc_Si10       4.75525804113       6.25455399686       10.1175134958                   0                   0                   0                   0
    tauc_Si11       1.58928301618       0.93377800926       10.1623778627                   0                   0                   0                   0
    tauc_Si12       7.79062357584      0.851656455715       10.1470358041                   0                   0                   0                   0
    tauc_Si13      -1.48823511459       4.51097756678       2.52441863898                   0                   0                   0                   0
    tauc_Si14       1.61343965755        4.4665335557       2.51468439361                   0                   0                   0                   0
    tauc_Si15      0.100111055139       7.16970668068       2.50090304004                   0                   0                   0                   0
    tauc_Si16       6.26016782685       3.53344151905       5.04461958711                   0                   0                   0                   0
    tauc_Si17       3.15433703233       3.56111318383       5.05170748678                   0                   0                   0                   0
    tauc_Si18       4.67052854683      0.861623713151       5.07385481125                   0                   0                   0                   0
    tauc_Si19      -1.48095225655       4.53626950387          7.60333324                   0                   0                   0                   0
    tauc_Si20       1.62142809125       4.49524367852       7.60494573468                   0                   0                   0                   0
    tauc_Si21      0.104517408429       7.20320718274       7.58689193095                   0                   0                   0                   0
    tauc_Si22       6.26906418968       3.56399804862       10.1295905417                   0                   0                   0                   0
    tauc_Si23       3.16579242439       3.59080084767       10.1376053393                   0                   0                   0                   0
    tauc_Si24       4.68953279091      0.887226009167       10.1518630213                   0                   0                   0                   0
    tauc_Si25       3.12775286333       1.75954280088       2.51941127047                   0                   0                   0                   0
    tauc_Si26       6.22479764852       1.72390179029       2.51143912855                   0                   0                   0                   0
    tauc_Si27       4.71098275193       4.42960876705       2.50349941066                   0                   0                   0                   0
    tauc_Si28       1.64045663097       6.27203835043       5.04498162081                   0                   0                   0                   0
    tauc_Si29      -1.45559781473       6.31548264366        5.0531673678                   0                   0                   0                   0
    tauc_Si30     0.0562470060541       3.60338209647       5.07072368322                   0                   0                   0                   0
    tauc_Si31       3.13691202329       1.79259766045       7.61665065779                   0                   0                   0                   0
    tauc_Si32       6.24865788289       1.75445318897       7.58473229283                   0                   0                   0                   0
    tauc_Si33       4.72368954992       4.46012653472       7.58371748594                   0                   0                   0                   0
    tauc_Si34       1.65096127827       6.29292716695       10.1421159793                   0                   0                   0                   0
    tauc_Si35      -1.44737024815       6.33719515211       10.1326118452                   0                   0                   0                   0
    tauc_Si36      0.078720322841       3.63250116419       10.1580357015                   0                   0                   0                   0
      tauc_C1     0.0301287881993       1.81250587436       4.44123536731                   0                   0                   0                   0
      tauc_C2       3.19610054056       7.14358088051       4.40957058107                   0                   0                   0                   0
      tauc_C3      -3.00860680077       7.21913819763       4.42034213274                   0                   0                   0                   0
      tauc_C4       4.74327169116        6.2449900287       6.94334056437                   0                   0                   0                   0
      tauc_C5       1.56819869036       0.91787383665       6.97516062382                   0                   0                   0                   0
      tauc_C6       7.78520258078      0.833319009745       6.97265476739                   0                   0                   0                   0
      tauc_C7     0.0475117812953       1.84759926284       9.53194405943                   0                   0                   0                   0
      tauc_C8       3.20698932622       7.17892284783       9.49731915537                   0                   0                   0                   0
      tauc_C9      -2.98430746083       7.24458742524       9.50530127421                   0                   0                   0                   0
     tauc_C10       4.74025463527       6.21475471281       1.85934745104                   0                   0                   0                   0
     tauc_C11       1.56771248304      0.878706881436       1.90331847547                   0                   0                   0                   0
     tauc_C12       7.77400024798      0.807943615308       1.87853413459                   0                   0                   0                   0
     tauc_C13      -1.48026727537       4.52189532226        4.4329850696                   0                   0                   0                   0
     tauc_C14       1.61903082069        4.4761083892       4.42922367815                   0                   0                   0                   0
     tauc_C15     0.0970124776598        7.1879853709       4.41705123509                   0                   0                   0                   0
     tauc_C16       6.25611952012       3.54207963102        6.9574726493                   0                   0                   0                   0
     tauc_C17       3.15656999636       3.57221402602       6.96653387039                   0                   0                   0                   0
     tauc_C18       4.68403621924      0.865797121053       6.98234208627                   0                   0                   0                   0
     tauc_C19      -1.46889987761       4.53916954575       9.51985405009                   0                   0                   0                   0
     tauc_C20        1.6275614562       4.50707404464       9.51824164749                   0                   0                   0                   0
     tauc_C21      0.113074588476       7.21592675595        9.4971469177                   0                   0                   0                   0
     tauc_C22        6.2569877332       3.51583713485       1.87275384552                   0                   0                   0                   0
     tauc_C23        3.1386424102       3.54765426526        1.8837676689                   0                   0                   0                   0
     tauc_C24       4.66742748001      0.847511115166       1.89519551279                   0                   0                   0                   0
     tauc_C25       3.13338868828       1.77917261583       4.43286404787                   0                   0                   0                   0
     tauc_C26       6.23796754929       1.73890062366       4.42420574883                   0                   0                   0                   0
     tauc_C27        4.7089993169       4.43280790773       4.42682575046                   0                   0                   0                   0
     tauc_C28       1.64578815391       6.28438887415       6.95528151266                   0                   0                   0                   0
     tauc_C29      -1.46072716413       6.31801920806       6.96248170838                   0                   0                   0                   0
     tauc_C30     0.0643640257116       3.62047908498       6.97736529775                   0                   0                   0                   0
     tauc_C31       3.15669952917       1.80380327826       9.51209526865                   0                   0                   0                   0
     tauc_C32       6.25168260059       1.76898356872       9.50941978555                   0                   0                   0                   0
     tauc_C33       4.73652699539       4.46696518732       9.50919014719                   0                   0                   0                   0
     tauc_C34       1.63186993558       6.25875639222       1.87285681601                   0                   0                   0                   0
     tauc_C35      -1.46959732187       6.28804159296       1.88619203855                   0                   0                   0                   0
     tauc_C36     0.0495790959879       3.58425586571       1.88915152106                   0                   0                   0                   0


 READING ORBITAL FILE NAMES FOR LCAO
 orbital file: Si_gga_9au_100Ry_3s3p2d.orb
 orbital file: C_gga_9au_100Ry_3s3p2d.orb

                          Volume (Bohr^3) = 5132.71351372
                             Volume (A^3) = 760.588761703

 Lattice vectors: (Cartesian coordinate: in unit of a_0)
       +9.11571006651                  +0                  +0
         -4.359330077        +8.109866204                  +0
     +0.0563518796317     +0.112202364609      +10.2883618388
 Reciprocal vectors: (Cartesian coordinate: in unit of 2 pi/a_0)
      +0.109700724651    +0.0589678863261   -0.00124394714273
                   +0     +0.123306596539   -0.00134475166409
                   +0                  -0    +0.0971972035653




 >>>>>>>>>>>>>>>>>>>>>>>>>>>>>>>>>>>>>>>>>>>>>>>>>>>>>>>>>>>>>>>>>>>>>>
 |                                                                    |
 | Reading pseudopotentials files:                                    |
 | The pseudopotential file is in UPF format. The 'NC' indicates that |
 | the type of pseudopotential is 'norm conserving'. Functional of    |
 | exchange and correlation is decided by 4 given parameters in UPF   |
 | file.  We also read in the 'core correction' if there exists.      |
 | Also we can read the valence electrons number and the maximal      |
 | angular momentum used in this pseudopotential. We also read in the |
 | trail wave function, trail atomic density and local-pseudopotential|
 | on logrithmic grid. The non-local pseudopotential projector is also|
 | read in if there is any.                                           |
 |                                                                    |
 <<<<<<<<<<<<<<<<<<<<<<<<<<<<<<<<<<<<<<<<<<<<<<<<<<<<<<<<<<<<<<<<<<<<<<




                PAO radial cut off (Bohr) = 15

 Read in pseudopotential file is Si_ONCV_PBE-1.0.upf
                     pseudopotential type = NC
          exchange-correlation functional = PBE
                 nonlocal core correction = 0
                        valence electrons = 4
                                     lmax = 1
                           number of zeta = 0
                     number of projectors = 4
                           L of projector = 0
                           L of projector = 0
                           L of projector = 1
                           L of projector = 1
                PAO radial cut off (Bohr) = 15

 Read in pseudopotential file is C_ONCV_PBE-1.0.upf
                     pseudopotential type = NC
          exchange-correlation functional = PBE
                 nonlocal core correction = 0
                        valence electrons = 4
                                     lmax = 1
                           number of zeta = 0
                     number of projectors = 4
                           L of projector = 0
                           L of projector = 0
                           L of projector = 1
                           L of projector = 1
     initial pseudo atomic orbital number = 0
                                   NLOCAL = 1584




 >>>>>>>>>>>>>>>>>>>>>>>>>>>>>>>>>>>>>>>>>>>>>>>>>>>>>>>>>>>>>>>>>>>>>>
 |                                                                    |
 | Setup plane waves of charge/potential:                             |
 | Use the energy cutoff and the lattice vectors to generate the      |
 | dimensions of FFT grid. The number of FFT grid on each processor   |
 | is 'nrxx'. The number of plane wave basis in reciprocal space is   |
 | different for charege/potential and wave functions. We also set    |
 | the 'sticks' for the parallel of FFT. The number of plane waves    |
 | is 'npw' in each processor.                                        |
 <<<<<<<<<<<<<<<<<<<<<<<<<<<<<<<<<<<<<<<<<<<<<<<<<<<<<<<<<<<<<<<<<<<<<<





 SETUP THE PLANE WAVE BASIS
 energy cutoff for charge/potential (unit:Ry) = 400
          [fft grid for charge/potential] = 120, 120, 128
                      [fft grid division] = 2, 2, 2
      [big fft grid for charge/potential] = 60, 60, 64
                                     nbxx = 14400
                                     nrxx = 115200

 SETUP PLANE WAVES FOR CHARGE/POTENTIAL
                    number of plane waves = 693513
                         number of sticks = 8407

 PARALLEL PW FOR CHARGE/POTENTIAL
     PROC   COLUMNS(POT)             PW
        1            526          43345
        2            526          43346
        3            526          43346
        4            525          43344
        5            525          43344
        6            525          43344
        7            525          43344
        8            525          43344
        9            525          43344
       10            525          43344
       11            525          43344
       12            525          43344
       13            526          43345
       14            526          43345
       15            526          43345
       16            526          43345
 --------------- sum -------------------
       16           8407         693513
                            number of |g| = 42160
                                  max |g| = 36.1813827059
                                  min |g| = 0.21051780211

 SETUP THE ELECTRONS NUMBER
            electron number of element Si = 4
      total electron number of element Si = 144
             electron number of element C = 4
       total electron number of element C = 144
            AUTOSET number of electrons:  = 288
 DONE : SETUP UNITCELL Time : 0.121538430112 (SEC)





 >>>>>>>>>>>>>>>>>>>>>>>>>>>>>>>>>>>>>>>>>>>>>>>>>>>>>>>>>>>>>>>>>>>>>>
 |                                                                    |
 | Setup K-points                                                     |
 | We setup the k-points according to input parameters.               |
 | The reduced k-points are set according to symmetry operations.     |
 | We treat the spin as another set of k-points.                      |
 |                                                                    |
 <<<<<<<<<<<<<<<<<<<<<<<<<<<<<<<<<<<<<<<<<<<<<<<<<<<<<<<<<<<<<<<<<<<<<<





 SETUP K-POINTS
                                    nspin = 1
                   Input type of k points = Monkhorst-Pack(Gamma)
                                   nkstot = 64
                               nkstot_ibz = 36
      IBZ             DirectX             DirectY             DirectZ              Weight    ibz2bz
        1                   0                   0                   0            0.015625         0
        2                0.75                   0                   0             0.03125         1
        3                 0.5                   0                   0            0.015625         2
        4                   0                0.75                   0             0.03125         4
        5                0.75                0.75                   0             0.03125         5
        6                 0.5                0.75                   0             0.03125         6
        7                0.25                0.75                   0             0.03125         7
        8                   0                 0.5                   0            0.015625         8
        9                0.75                 0.5                   0             0.03125         9
       10                 0.5                 0.5                   0            0.015625        10
       11                   0                   0                0.75             0.03125        16
       12                0.75                   0                0.75             0.03125        17
       13                 0.5                   0                0.75             0.03125        18
       14                0.25                   0                0.75             0.03125        19
       15                   0                0.75                0.75             0.03125        20
       16                0.75                0.75                0.75             0.03125        21
       17                 0.5                0.75                0.75             0.03125        22
       18                0.25                0.75                0.75             0.03125        23
       19                   0                 0.5                0.75             0.03125        24
       20                0.75                 0.5                0.75             0.03125        25
       21                 0.5                 0.5                0.75             0.03125        26
       22                0.25                 0.5                0.75             0.03125        27
       23                   0                0.25                0.75             0.03125        28
       24                0.75                0.25                0.75             0.03125        29
       25                 0.5                0.25                0.75             0.03125        30
       26                0.25                0.25                0.75             0.03125        31
       27                   0                   0                 0.5            0.015625        32
       28                0.75                   0                 0.5             0.03125        33
       29                 0.5                   0                 0.5            0.015625        34
       30                   0                0.75                 0.5             0.03125        36
       31                0.75                0.75                 0.5             0.03125        37
       32                 0.5                0.75                 0.5             0.03125        38
       33                0.25                0.75                 0.5             0.03125        39
       34                   0                 0.5                 0.5            0.015625        40
       35                0.75                 0.5                 0.5             0.03125        41
       36                 0.5                 0.5                 0.5            0.015625        42
                               nkstot now = 36

  KPOINTS            DIRECT_X            DIRECT_Y            DIRECT_Z              WEIGHT
        1                   0                   0                   0            0.015625
        2                0.75                   0                   0             0.03125
        3                 0.5                   0                   0            0.015625
        4                   0                0.75                   0             0.03125
        5                0.75                0.75                   0             0.03125
        6                 0.5                0.75                   0             0.03125
        7                0.25                0.75                   0             0.03125
        8                   0                 0.5                   0            0.015625
        9                0.75                 0.5                   0             0.03125
       10                 0.5                 0.5                   0            0.015625
       11                   0                   0                0.75             0.03125
       12                0.75                   0                0.75             0.03125
       13                 0.5                   0                0.75             0.03125
       14                0.25                   0                0.75             0.03125
       15                   0                0.75                0.75             0.03125
       16                0.75                0.75                0.75             0.03125
       17                 0.5                0.75                0.75             0.03125
       18                0.25                0.75                0.75             0.03125
       19                   0                 0.5                0.75             0.03125
       20                0.75                 0.5                0.75             0.03125
       21                 0.5                 0.5                0.75             0.03125
       22                0.25                 0.5                0.75             0.03125
       23                   0                0.25                0.75             0.03125
       24                0.75                0.25                0.75             0.03125
       25                 0.5                0.25                0.75             0.03125
       26                0.25                0.25                0.75             0.03125
       27                   0                   0                 0.5            0.015625
       28                0.75                   0                 0.5             0.03125
       29                 0.5                   0                 0.5            0.015625
       30                   0                0.75                 0.5             0.03125
       31                0.75                0.75                 0.5             0.03125
       32                 0.5                0.75                 0.5             0.03125
       33                0.25                0.75                 0.5             0.03125
       34                   0                 0.5                 0.5            0.015625
       35                0.75                 0.5                 0.5             0.03125
       36                 0.5                 0.5                 0.5            0.015625

           k-point number in this process = 36
       minimum distributed K point number = 36

  KPOINTS         CARTESIAN_X         CARTESIAN_Y         CARTESIAN_Z              WEIGHT
        1                   0                   0                   0             0.03125
        2     0.0822755434879     0.0442259147446  -0.000932960357049              0.0625
        3     0.0548503623253      0.029483943163  -0.000621973571366             0.03125
        4                   0      0.092479947404   -0.00100856374807              0.0625
        5     0.0822755434879      0.136705862149   -0.00194152410511              0.0625
        6     0.0548503623253      0.121963890567   -0.00163053731943              0.0625
        7     0.0274251811626      0.107221918986   -0.00131955053375              0.0625
        8                   0     0.0616532982694  -0.000672375832044             0.03125
        9     0.0822755434879      0.105879213014   -0.00160533618909              0.0625
       10     0.0548503623253     0.0911372414324   -0.00129434940341             0.03125
       11                   0                   0      0.072897902674              0.0625
       12     0.0822755434879     0.0442259147446     0.0719649423169              0.0625
       13     0.0548503623253      0.029483943163     0.0722759291026              0.0625
       14     0.0274251811626     0.0147419715815     0.0725869158883              0.0625
       15                   0      0.092479947404     0.0718893389259              0.0625
       16     0.0822755434879      0.136705862149     0.0709563785688              0.0625
       17     0.0548503623253      0.121963890567     0.0712673653545              0.0625
       18     0.0274251811626      0.107221918986     0.0715783521402              0.0625
       19                   0     0.0616532982694     0.0722255268419              0.0625
       20     0.0822755434879      0.105879213014     0.0712925664849              0.0625
       21     0.0548503623253     0.0911372414324     0.0716035532705              0.0625
       22     0.0274251811626     0.0763952698509     0.0719145400562              0.0625
       23                   0     0.0308266491347     0.0725617147579              0.0625
       24     0.0822755434879     0.0750525638792     0.0716287544009              0.0625
       25     0.0548503623253     0.0603105922977     0.0719397411866              0.0625
       26     0.0274251811626     0.0455686207162     0.0722507279722              0.0625
       27                   0                   0     0.0485986017826             0.03125
       28     0.0822755434879     0.0442259147446     0.0476656414256              0.0625
       29     0.0548503623253      0.029483943163     0.0479766282113             0.03125
       30                   0      0.092479947404     0.0475900380346              0.0625
       31     0.0822755434879      0.136705862149     0.0466570776775              0.0625
       32     0.0548503623253      0.121963890567     0.0469680644632              0.0625
       33     0.0274251811626      0.107221918986     0.0472790512489              0.0625
       34                   0     0.0616532982694     0.0479262259506             0.03125
       35     0.0822755434879      0.105879213014     0.0469932655935              0.0625
       36     0.0548503623253     0.0911372414324     0.0473042523792             0.03125

  KPOINTS            DIRECT_X            DIRECT_Y            DIRECT_Z              WEIGHT
        1                   0                   0                   0             0.03125
        2                0.75                   0                   0              0.0625
        3                 0.5                   0                   0             0.03125
        4                   0                0.75                   0              0.0625
        5                0.75                0.75                   0              0.0625
        6                 0.5                0.75                   0              0.0625
        7                0.25                0.75                   0              0.0625
        8                   0                 0.5                   0             0.03125
        9                0.75                 0.5                   0              0.0625
       10                 0.5                 0.5                   0             0.03125
       11                   0                   0                0.75              0.0625
       12                0.75                   0                0.75              0.0625
       13                 0.5                   0                0.75              0.0625
       14                0.25                   0                0.75              0.0625
       15                   0                0.75                0.75              0.0625
       16                0.75                0.75                0.75              0.0625
       17                 0.5                0.75                0.75              0.0625
       18                0.25                0.75                0.75              0.0625
       19                   0                 0.5                0.75              0.0625
       20                0.75                 0.5                0.75              0.0625
       21                 0.5                 0.5                0.75              0.0625
       22                0.25                 0.5                0.75              0.0625
       23                   0                0.25                0.75              0.0625
       24                0.75                0.25                0.75              0.0625
       25                 0.5                0.25                0.75              0.0625
       26                0.25                0.25                0.75              0.0625
       27                   0                   0                 0.5             0.03125
       28                0.75                   0                 0.5              0.0625
       29                 0.5                   0                 0.5             0.03125
       30                   0                0.75                 0.5              0.0625
       31                0.75                0.75                 0.5              0.0625
       32                 0.5                0.75                 0.5              0.0625
       33                0.25                0.75                 0.5              0.0625
       34                   0                 0.5                 0.5             0.03125
       35                0.75                 0.5                 0.5              0.0625
       36                 0.5                 0.5                 0.5             0.03125
 DONE : INIT K-POINTS Time : 0.131281270196 (SEC)

                           occupied bands = 144
                                   NLOCAL = 1584
                                   NBANDS = 173
                                   NBANDS = 173




 >>>>>>>>>>>>>>>>>>>>>>>>>>>>>>>>>>>>>>>>>>>>>>>>>>>>>>>>>>>>>>>>>>>>>>
 |                                                                    |
 | Setup numerical orbitals:                                          |
 | This part setup: numerical atomic orbitals, non-local projectors   |
 | and neutral potential (1D). The atomic orbitals information        |
 | including the radius, angular momentum and zeta number.            |
 | The neutral potential is the sum of local part of pseudopotential  |
 | and potential given by atomic charge, they will cancel out beyond  |
 | a certain radius cutoff, because the Z/r character.                |
 |                                                                    |
 <<<<<<<<<<<<<<<<<<<<<<<<<<<<<<<<<<<<<<<<<<<<<<<<<<<<<<<<<<<<<<<<<<<<<<





 SETUP ONE DIMENSIONAL ORBITALS/POTENTIAL
                        delta k  (1/Bohr) = 0.01
                        delta r    (Bohr) = 0.01
                        dr_uniform (Bohr) = 0.001
                        rmax       (Bohr) = 30
                                    kmesh = 1005
      ORBITAL  L  N      nr      dr    RCUT  CHECK_UNIT    NEW_UNIT
            1  0  0     901    0.01       9           1           1
            2  0  1     901    0.01       9           1           1
            3  0  2     901    0.01       9           1           1
            4  1  0     901    0.01       9           1           1
            5  1  1     901    0.01       9           1           1
            6  1  2     901    0.01       9           1           1
            7  2  0     901    0.01       9           1           1
            8  2  1     901    0.01       9           1           1
      ORBITAL  L  N      nr      dr    RCUT  CHECK_UNIT    NEW_UNIT
            1  0  0     901    0.01       9           1           1
            2  0  1     901    0.01       9           1           1
            3  0  2     901    0.01       9           1           1
            4  1  0     901    0.01       9           1           1
            5  1  1     901    0.01       9           1           1
            6  1  2     901    0.01       9           1           1
            7  2  0     901    0.01       9           1           1
            8  2  1     901    0.01       9           1           1
 SET NONLOCAL PSEUDOPOTENTIAL PROJECTORS
 SET NONLOCAL PSEUDOPOTENTIAL PROJECTORS
 max number of nonlocal projetors among all species is 4

 SETUP THE TWO-CENTER INTEGRATION TABLES

 SETUP THE DIVISION OF H/S MATRIX
 divide the H&S matrix using 2D block algorithms.
                                     nb2d = 64
 parameter nb2d is too large: nb2d = 64
 reset nb2d to value 1, this set would make the program keep working but maybe get slower during diagonalization.
                  trace_loc_row dimension = 1584
                  trace_loc_col dimension = 1584
                                     nloc = 156816

 -------------------------------------------
 STEP OF MOLECULAR DYNAMICS : 0
 -------------------------------------------
              searching radius is (Bohr)) = 25.3
         searching radius unit is (Bohr)) = 1.89
1630410
                                 init_chg = atomic
 DONE : INIT SCF Time : 10.2316 (SEC)


 LCAO ALGORITHM --------------- ION=   1  ELEC=   1--------------------------------

 Density error is 0.272628272858

 LCAO ALGORITHM --------------- ION=   1  ELEC=   2--------------------------------

 Density error is 0.150902118271

 LCAO ALGORITHM --------------- ION=   1  ELEC=   3--------------------------------

 Density error is 0.0291038494793

 LCAO ALGORITHM --------------- ION=   1  ELEC=   4--------------------------------

 Density error is 0.0710341720946

 LCAO ALGORITHM --------------- ION=   1  ELEC=   5--------------------------------

 Density error is 0.0107643769021

 LCAO ALGORITHM --------------- ION=   1  ELEC=   6--------------------------------

 Density error is 0.00604424431074

 LCAO ALGORITHM --------------- ION=   1  ELEC=   7--------------------------------

 Density error is 0.00237571036559

 LCAO ALGORITHM --------------- ION=   1  ELEC=   8--------------------------------

 Density error is 0.00176755026632

 LCAO ALGORITHM --------------- ION=   1  ELEC=   9--------------------------------

 Density error is 0.00142348047857

 LCAO ALGORITHM --------------- ION=   1  ELEC=  10--------------------------------

 Density error is 0.000953990191979

 LCAO ALGORITHM --------------- ION=   1  ELEC=  11--------------------------------

 Density error is 0.000302309129865

 LCAO ALGORITHM --------------- ION=   1  ELEC=  12--------------------------------

 Density error is 8.61394865368e-05

 LCAO ALGORITHM --------------- ION=   1  ELEC=  13--------------------------------

 Density error is 2.25472563014e-05

 LCAO ALGORITHM --------------- ION=   1  ELEC=  14--------------------------------

 Density error is 9.75677894212e-06

 LCAO ALGORITHM --------------- ION=   1  ELEC=  15--------------------------------

 Density error is 7.98152789947e-06

 LCAO ALGORITHM --------------- ION=   1  ELEC=  16--------------------------------

 Density error is 3.13006416413e-06

 LCAO ALGORITHM --------------- ION=   1  ELEC=  17--------------------------------

 Density error is 2.28403921567e-06

 LCAO ALGORITHM --------------- ION=   1  ELEC=  18--------------------------------

 Density error is 8.85560251617e-07

 charge density convergence is achieved
 final etot is -9453.31373695 eV

 ><><><><><><><><><><><><><><><><><><><><><><><><><><><><><><><><><><><

    TOTAL-FORCE (eV/Angstrom)

 ><><><><><><><><><><><><><><><><><><><><><><><><><><><><><><><><><><><

     atom              x              y              z
      Si1           +1.474322         +0.16424125         -0.33834287
      Si2         +0.19178796        -0.056500489         -0.17847632
      Si3          +1.9018937         +0.23345015        -0.078859895
      Si4          -1.7949514         -0.62321302         +0.34157012
      Si5         -0.26485886        -0.020425731         -0.37628233
      Si6          -2.0713328         -0.54542819         +0.39186771
      Si7          +1.2634256         +0.73550507        -0.031436471
      Si8         -0.10297473         -0.18556887        +0.019919197
      Si9           +1.560579         +0.39305091        +0.070373328
     Si10          -1.5448371        -0.064460243          +1.6820274
     Si11        -0.076919072         +0.13319586           +1.058079
     Si12          -2.0543635         -0.13292458          +1.4173793
     Si13          +1.5195639        +0.087741925          -0.3750442
     Si14        -0.032327223        -0.074589441          -0.4145842
     Si15         +0.37843411        -0.022862088         -0.24082203
     Si16          -1.6905145         -0.37156394         +0.29669974
     Si17        -0.097134156         +0.20433982        +0.024148209
     Si18         -0.44995824         +0.10917093         -0.42381079
     Si19          +1.5783699        +0.079899086        +0.096926416
     Si20         +0.15269106        +0.027184811         -0.29230583
     Si21         +0.71714722         -0.25671642      -0.00069951353
     Si22          -1.4386426         -0.43295679          +1.7216389
     Si23         +0.16329787         +0.35540342          +1.2586017
     Si24         -0.31052611         +0.29920053         +0.95572718
     Si25       +0.0014723817       +0.0029596962         -0.38888957
     Si26          -0.1504242        -0.019827316         -0.38534964
     Si27         -0.25654399         -0.24123652         -0.32586236
     Si28        -0.025285221       -0.0057529424        -0.077010654
     Si29         +0.18555337        +0.038588757         -0.12379431
     Si30         +0.31569748         +0.22024895         -0.14085954
     Si31         +0.12961244        -0.099162515         -0.46259273
     Si32         -0.41790443         -0.13952464         +0.28822874
     Si33         -0.38140399         -0.22217749        +0.024765727
     Si34        +0.095746372         +0.43379296         +0.99511819
     Si35         +0.51248892         +0.19526146          +1.3588992
     Si36        +0.098314634         +0.34573728          +1.1851206
       C1          +1.5335294         +0.54165604         -0.42420672
       C2         +0.23773689        +0.020985327         +0.16463288
       C3          +2.1773821          +0.7164189         -0.25625877
       C4          -1.0776222          -0.3100916        +0.044644899
       C5         +0.20159152         -0.15184899          +0.3192669
       C6          -1.7884807         -0.33701701         -0.45469792
       C7          +1.5309838         +0.27592475         -0.31146476
       C8         +0.33808638         -0.22049658          +0.4242665
       C9          +1.8444516         +0.67821872         -0.13733404
      C10          -1.5186041         -0.55110585          -1.2137186
      C11         -0.27473776         +0.05175425          -1.0971604
      C12          -1.9958943         -0.55331791          -1.2343431
      C13          +1.5164557         +0.38227624         -0.34502574
      C14        -0.088956526        -0.067480361        +0.019024524
      C15         +0.48380502        -0.064822638         +0.21522394
      C16          -1.2367316         -0.33836734         -0.17958072
      C17        +0.018904029         +0.15968418          +0.2121963
      C18         -0.59255054         +0.30939673        -0.085415238
      C19           +1.668363         +0.60181967         -0.37034559
      C20         +0.10878271          -0.1175771         +0.13851018
      C21         +0.39458999         -0.17544406         +0.49117097
      C22          -1.6631398         -0.57142384          -1.1753932
      C23         +0.10806437        -0.080173129          -1.0455167
      C24         -0.57011113          -0.1415154          -1.1970813
      C25        -0.098052704         -0.25125585         +0.12268409
      C26         -0.49158966        -0.059914489         +0.23824982
      C27        -0.050527366         +0.10524559        -0.051567217
      C28        +0.096108313        +0.025918943         +0.25448276
      C29         +0.53091793          +0.1069484         +0.18864743
      C30        +0.074880902         -0.13953525         +0.28012798
      C31         -0.30340868         -0.12152764         +0.47628486
      C32         -0.35269917        -0.080719393         +0.27167454
      C33         -0.44548849        -0.054009213        +0.044487014
      C34        +0.052964311         -0.24712493         -0.97645795
      C35         +0.39864666        +0.035864927          -1.0384849
      C36         +0.15285415        +0.078574261         -0.84359006


 ><><><><><><><><><><><><><><><><><><><><><><><><><><><><><><><><><><><

 TOTAL-STRESS (KBAR)

 ><><><><><><><><><><><><><><><><><><><><><><><><><><><><><><><><><><><

              +96.262333             -21.959078             -10.428489
              -21.959078             -10.685100             -17.714385
              -10.428489             -17.714385             -53.054129
 TOTAL-PRESSURE: +10.841035 KBAR


 ------------------------------------------------------------------------------------------------
 Energy              Potential           Kinetic             Temperature         Pressure (KBAR)     
 -347.39937          -347.40275          +0.0033726584       +10                 +10.969917          
 ------------------------------------------------------------------------------------------------

output Pressure for check!
Virtual Pressure is +10.969917 Kbar 
Virial Term is +10.841035 Kbar 
Kenetic Term is +0.12888197 Kbar 


 ><><><><><><><><><><><><><><><><><><><><><><><><><><><><><><><><><><><

 MD STRESS (KBAR)

 ><><><><><><><><><><><><><><><><><><><><><><><><><><><><><><><><><><><

+96.381415     -21.981596     -10.427441     
-21.981596     -10.562526     -17.734316     
-10.427441     -17.734316     -52.909138     



 -------------------------------------------
 STEP OF MOLECULAR DYNAMICS : 1
 -------------------------------------------
 NEW-OLD atomic charge density approx. for the potential !
 searching radius is (Bohr))              = +25.29
 searching radius unit is (Bohr))         = +1.8897261
+1630410
 DONE : INIT SCF Time : +1912.61 (SEC)


 LCAO ALGORITHM --------------- ION=+2    ELEC=+1  --------------------------------

 Density error is +0.000430392548385

 LCAO ALGORITHM --------------- ION=+2    ELEC=+2  --------------------------------

 Density error is +0.00022649443206

 LCAO ALGORITHM --------------- ION=+2    ELEC=+3  --------------------------------

 Density error is +0.000221488424006

 LCAO ALGORITHM --------------- ION=+2    ELEC=+4  --------------------------------

 Density error is +5.93235291808e-05

 LCAO ALGORITHM --------------- ION=+2    ELEC=+5  --------------------------------

 Density error is +4.39188846929e-05

 LCAO ALGORITHM --------------- ION=+2    ELEC=+6  --------------------------------

 Density error is +1.5960520778e-05

 LCAO ALGORITHM --------------- ION=+2    ELEC=+7  --------------------------------

 Density error is +5.83539234116e-06

 LCAO ALGORITHM --------------- ION=+2    ELEC=+8  --------------------------------

 Density error is +1.21692427579e-06

 LCAO ALGORITHM --------------- ION=+2    ELEC=+9  --------------------------------

 Density error is +4.67306196413e-07

 charge density convergence is achieved
 final etot is -9453.33712301 eV

 ><><><><><><><><><><><><><><><><><><><><><><><><><><><><><><><><><><><

    TOTAL-FORCE (eV/Angstrom)

 ><><><><><><><><><><><><><><><><><><><><><><><><><><><><><><><><><><><

 atom    x              y              z              
 Si1     +1.4368201          +0.17279195         -0.37511845         
 Si2     +0.19265355         -0.036133474        -0.19109434         
 Si3     +1.884273           +0.19456915         -0.089786534        
 Si4     -1.8016452          -0.57764659         +0.33606806         
 Si5     -0.26534314         -0.036203334        -0.38242374         
 Si6     -2.085748           -0.55505914         +0.39553443         
 Si7     +1.2509549          +0.73344894         -0.027034537        
 Si8     -0.11905353         -0.1949024          +0.022989688        
 Si9     +1.5438138          +0.38746356         +0.086218846        
 Si10    -1.5085528          -0.070540831        +1.6578112          
 Si11    -0.075891929        +0.10938925         +1.0504457          
 Si12    -2.0345581          -0.10583248         +1.4099327          
 Si13    +1.4945359          +0.080164803        -0.38643363         
 Si14    -0.035122914        -0.079519466        -0.43304047         
 Si15    +0.37371474         -0.0030314654       -0.21984355         
 Si16    -1.6474134          -0.33933774         +0.26835179         
 Si17    -0.085959262        +0.18954527         -0.0033246892       
 Si18    -0.45073712         +0.09843973         -0.42888527         
 Si19    +1.5617959          +0.066749791        +0.095775396        
 Si20    +0.13523202         +0.018776894        -0.27337563         
 Si21    +0.7309765          -0.22965575         +0.021476244        
 Si22    -1.4583223          -0.43654105         +1.7284023          
 Si23    +0.16212614         +0.34912929         +1.2643996          
 Si24    -0.3386913          +0.28578895         +0.9600575          
 Si25    +0.0074241083       -0.0061552175       -0.38179212         
 Si26    -0.15481308         -0.040695591        -0.3988886          
 Si27    -0.25882732         -0.23949738         -0.32769769         
 Si28    -0.0046082778       -0.015460031        -0.072204901        
 Si29    +0.19281971         +0.059508592        -0.13236724         
 Si30    +0.32665401         +0.21554014         -0.14448426         
 Si31    +0.10999187         -0.079028879        -0.47342819         
 Si32    -0.37966489         -0.1491407          +0.27924082         
 Si33    -0.38991443         -0.20338067         -0.0024638523       
 Si34    +0.087439806        +0.43644957         +1.0078699          
 Si35    +0.50111025         +0.19647859         +1.3685082          
 Si36    +0.083791243        +0.33029382         +1.1880825          
 C1      +1.5503943          +0.54912107         -0.40819196         
 C2      +0.2397756          +0.012871254        +0.18975586         
 C3      +2.1703767          +0.72497439         -0.24381548         
 C4      -1.0712483          -0.3333873          +0.043074718        
 C5      +0.22481913         -0.14601707         +0.30751444         
 C6      -1.7955451          -0.32753139         -0.45614165         
 C7      +1.503825           +0.25980401         -0.29406121         
 C8      +0.35539516         -0.20896571         +0.41226487         
 C9      +1.7920036          +0.67250193         -0.11860566         
 C10     -1.4990964          -0.51944245         -1.1995454          
 C11     -0.28192246         +0.060105599        -1.0981491          
 C12     -1.9584504          -0.55908899         -1.2092933          
 C13     +1.4665897          +0.33700747         -0.32400551         
 C14     -0.10415565         -0.068437261        +0.050422119        
 C15     +0.47376702         -0.054483112        +0.20054098         
 C16     -1.2282232          -0.31522703         -0.15063512         
 C17     +0.040227545        +0.1486602          +0.24185407         
 C18     -0.60950135         +0.28379678         -0.091564432        
 C19     +1.6852783          +0.59692753         -0.37164572         
 C20     +0.11927253         -0.10117953         +0.10756302         
 C21     +0.39925507         -0.1592412          +0.48252021         
 C22     -1.6243562          -0.53591229         -1.1634384          
 C23     +0.10757674         -0.078906239        -1.0444928          
 C24     -0.57352451         -0.1426062          -1.1880196          
 C25     -0.10977112         -0.23500413         +0.1159368          
 C26     -0.4755839          -0.060319216        +0.24369112         
 C27     -0.062730885        +0.071318674        -0.052647559        
 C28     +0.11010539         +0.020246244        +0.23362902         
 C29     +0.5233771          +0.094468082        +0.16107845         
 C30     +0.082306912        -0.12198553         +0.28394522         
 C31     -0.28053878         -0.1206225          +0.48655747         
 C32     -0.34070503         -0.082647257        +0.26026759         
 C33     -0.42501604         -0.028887082        +0.065293103        
 C34     +0.067016926        -0.26781827         -0.99777546         
 C35     +0.39648329         +0.043369932        -1.0474764          
 C36     +0.15126277         +0.065770469        -0.82388116         


 ><><><><><><><><><><><><><><><><><><><><><><><><><><><><><><><><><><><

 TOTAL-STRESS (KBAR)

 ><><><><><><><><><><><><><><><><><><><><><><><><><><><><><><><><><><><

 +96.100210             -22.233701             -10.493510             
 -22.233701             -10.871208             -17.719561             
 -10.493510             -17.719561             -52.993191             
 TOTAL-PRESSURE: +10.745270 KBAR


 ------------------------------------------------------------------------------------------------
 Energy              Potential           Kinetic             Temperature         Pressure (KBAR)     
 -347.3962           -347.40361          +0.0074059786       +21.958875          +11.028281          
 ------------------------------------------------------------------------------------------------

output Pressure for check!
Virtual Pressure is +11.028281 Kbar 
Virial Term is +10.74527 Kbar 
Kenetic Term is +0.28301032 Kbar 


 ><><><><><><><><><><><><><><><><><><><><><><><><><><><><><><><><><><><

 MD STRESS (KBAR)

 ><><><><><><><><><><><><><><><><><><><><><><><><><><><><><><><><><><><

+96.361461     -22.214677     -10.481306     
-22.214677     -10.51029      -17.714387     
-10.481306     -17.714387     -52.766329     



 -------------------------------------------
 STEP OF MOLECULAR DYNAMICS : 2
 -------------------------------------------
 first order charge density extrapolation !
 searching radius is (Bohr))              = +25.29
 searching radius unit is (Bohr))         = +1.8897261
+1630674
 DONE : INIT SCF Time : +2905.56 (SEC)


 LCAO ALGORITHM --------------- ION=+3    ELEC=+1  --------------------------------

 Density error is +0.00156372294663

 LCAO ALGORITHM --------------- ION=+3    ELEC=+2  --------------------------------

 Density error is +0.001000587238

 LCAO ALGORITHM --------------- ION=+3    ELEC=+3  --------------------------------

 Density error is +0.000867847865895

 LCAO ALGORITHM --------------- ION=+3    ELEC=+4  --------------------------------

 Density error is +0.000243159016537

 LCAO ALGORITHM --------------- ION=+3    ELEC=+5  --------------------------------

 Density error is +0.000173054490072

 LCAO ALGORITHM --------------- ION=+3    ELEC=+6  --------------------------------

 Density error is +5.76530317815e-05

 LCAO ALGORITHM --------------- ION=+3    ELEC=+7  --------------------------------

 Density error is +2.61439109322e-05

 LCAO ALGORITHM --------------- ION=+3    ELEC=+8  --------------------------------

 Density error is +5.35199981942e-06

 LCAO ALGORITHM --------------- ION=+3    ELEC=+9  --------------------------------

 Density error is +1.99698969257e-06

 LCAO ALGORITHM --------------- ION=+3    ELEC=+10 --------------------------------

 Density error is +5.98981921221e-07

 charge density convergence is achieved
 final etot is -9453.37092888 eV

 ><><><><><><><><><><><><><><><><><><><><><><><><><><><><><><><><><><><

    TOTAL-FORCE (eV/Angstrom)

 ><><><><><><><><><><><><><><><><><><><><><><><><><><><><><><><><><><><

 atom    x              y              z              
 Si1     +1.3780488          +0.22083708         -0.31686094         
 Si2     +0.19058606         -0.045976536        -0.20888547         
 Si3     +1.8800851          +0.22179319         -0.098050615        
 Si4     -1.7548181          -0.53894028         +0.26378496         
 Si5     -0.29655686         -0.066340376        -0.33074235         
 Si6     -2.1041163          -0.54394037         +0.331066           
 Si7     +1.2374157          +0.74366897         -0.064946627        
 Si8     -0.14764102         -0.23996488         +0.0044183801       
 Si9     +1.4849257          +0.32662946         +0.06920407         
 Si10    -1.4511884          -0.12522204         +1.6579568          
 Si11    -0.13408984         +0.082103729        +1.028703           
 Si12    -2.050961           -0.11609326         +1.4163733          
 Si13    +1.4830226          +0.086601656        -0.40930322         
 Si14    -0.1118321          -0.12627355         -0.46098294         
 Si15    +0.34883285         -0.02752464         -0.20933159         
 Si16    -1.6964497          -0.39231021         +0.31933913         
 Si17    -0.07221473         +0.32566579         -0.033247823        
 Si18    -0.49616322         +0.040848988        -0.43946951         
 Si19    +1.5631635          +0.095124901        +0.098558876        
 Si20    +0.20478623         -0.013609564        -0.27925191         
 Si21    +0.73359833         -0.27970229         +0.057820127        
 Si22    -1.3499952          -0.3575831          +1.7165432          
 Si23    +0.20299578         +0.31914503         +1.1907741          
 Si24    -0.3683405          +0.23754502         +0.93477681         
 Si25    -0.021022119        -0.10903597         -0.34497704         
 Si26    -0.10498129         -0.029179058        -0.4328289          
 Si27    -0.20292288         -0.1689011          -0.36500755         
 Si28    -0.040413844        -0.02904759         -0.022143394        
 Si29    +0.17458218         +0.020085128        -0.14420347         
 Si30    +0.26522253         +0.18368127         -0.14713979         
 Si31    +0.11341695         -0.06319185         -0.42197332         
 Si32    -0.42196369         -0.18001778         +0.28412468         
 Si33    -0.45965286         -0.18360904         +0.056163817        
 Si34    +0.038954706        +0.40435197         +0.95808321         
 Si35    +0.39763343         +0.17637587         +1.3043413          
 Si36    +0.012459081        +0.36121021         +1.1621997          
 C1      +1.5126332          +0.56232344         -0.42299153         
 C2      +0.3149537          +0.042028003        +0.21599914         
 C3      +2.099364           +0.65110374         -0.19364717         
 C4      -1.0197985          -0.31896212         +0.1202481          
 C5      +0.23400713         -0.048231074        +0.25491951         
 C6      -1.7815997          -0.30508485         -0.43575918         
 C7      +1.57541            +0.24226464         -0.28215218         
 C8      +0.3834472          -0.10924174         +0.43566871         
 C9      +1.8424178          +0.59577452         -0.084043073        
 C10     -1.5560865          -0.59238874         -1.2254479          
 C11     -0.1721561          +0.056175616        -1.0907869          
 C12     -2.0058618          -0.56564788         -1.2443998          
 C13     +1.5447335          +0.3959946          -0.37880076         
 C14     -0.037465374        -0.11873725         -0.0057326015       
 C15     +0.47382265         +0.0024276451       +0.12257463         
 C16     -1.1447642          -0.36735042         -0.20745519         
 C17     -0.0087780784       +0.075041429        +0.3130781          
 C18     -0.545994           +0.35899062         -0.033187233        
 C19     +1.6113974          +0.60406134         -0.28727602         
 C20     +0.17631036         -0.16330955         +0.19690799         
 C21     +0.47549682         -0.062505772        +0.46629959         
 C22     -1.6463566          -0.60838594         -1.0818024          
 C23     +0.057510722        +0.039763204        -1.0246182          
 C24     -0.58194271         -0.12150649         -1.1381692          
 C25     -0.043889517        -0.29170212         +0.056124114        
 C26     -0.404534           +0.026955648        +0.25833334         
 C27     -0.13481364         +0.022840483        -0.035541038        
 C28     +0.043532074        +0.1381697          +0.21137922         
 C29     +0.56266465         +0.070112989        +0.14276185         
 C30     +0.094264578        -0.18841867         +0.2514695          
 C31     -0.24302704         -0.011084404        +0.42047193         
 C32     -0.38195022         -0.14908562         +0.22111411         
 C33     -0.51222899         +0.025583044        +0.018925521        
 C34     +0.12753614         -0.29735872         -0.93681931         
 C35     +0.40692956         +0.096216795        -0.97121188         
 C36     +0.2604097          +0.10396909         -0.75131885         


 ><><><><><><><><><><><><><><><><><><><><><><><><><><><><><><><><><><><

 TOTAL-STRESS (KBAR)

 ><><><><><><><><><><><><><><><><><><><><><><><><><><><><><><><><><><><

 +95.906848             -22.254053             -10.811112             
 -22.254053             -11.132436             -17.880298             
 -10.811112             -17.880298             -53.059535             
 TOTAL-PRESSURE: +10.571626 KBAR


 ------------------------------------------------------------------------------------------------
 Energy              Potential           Kinetic             Temperature         Pressure (KBAR)     
 -347.38644          -347.40485          +0.018411641        +54.590884          +11.275204          
 ------------------------------------------------------------------------------------------------

output Pressure for check!
Virtual Pressure is +11.275204 Kbar 
Virial Term is +10.571626 Kbar 
Kenetic Term is +0.70357809 Kbar 


 ><><><><><><><><><><><><><><><><><><><><><><><><><><><><><><><><><><><

 MD STRESS (KBAR)

 ><><><><><><><><><><><><><><><><><><><><><><><><><><><><><><><><><><><

+96.704381     -22.255579     -10.764485     
-22.255579     -10.444315     -17.96536      
-10.764485     -17.96536      -52.434455     



 -------------------------------------------
 STEP OF MOLECULAR DYNAMICS : 3
 -------------------------------------------
 second order charge density extrapolation !
 searching radius is (Bohr))              = +25.29
 searching radius unit is (Bohr))         = +1.8897261
+1630994
 DONE : INIT SCF Time : +3995.71 (SEC)


 LCAO ALGORITHM --------------- ION=+4    ELEC=+1  --------------------------------

 Density error is +0.00183295772268

 LCAO ALGORITHM --------------- ION=+4    ELEC=+2  --------------------------------

 Density error is +0.00120145560909

 LCAO ALGORITHM --------------- ION=+4    ELEC=+3  --------------------------------

 Density error is +0.00112652189863

 LCAO ALGORITHM --------------- ION=+4    ELEC=+4  --------------------------------

 Density error is +0.000338807347658

 LCAO ALGORITHM --------------- ION=+4    ELEC=+5  --------------------------------

 Density error is +0.00018012728999

 LCAO ALGORITHM --------------- ION=+4    ELEC=+6  --------------------------------

 Density error is +6.12020697943e-05

 LCAO ALGORITHM --------------- ION=+4    ELEC=+7  --------------------------------

 Density error is +2.73837284201e-05

 LCAO ALGORITHM --------------- ION=+4    ELEC=+8  --------------------------------

 Density error is +7.88347721223e-06

 LCAO ALGORITHM --------------- ION=+4    ELEC=+9  --------------------------------

 Density error is +3.67354638019e-06

 LCAO ALGORITHM --------------- ION=+4    ELEC=+10 --------------------------------

 Density error is +1.79120172127e-06

 LCAO ALGORITHM --------------- ION=+4    ELEC=+11 --------------------------------

 Density error is +5.53113984216e-07

 charge density convergence is achieved
 final etot is -9453.3342 eV

 ><><><><><><><><><><><><><><><><><><><><><><><><><><><><><><><><><><><

    TOTAL-FORCE (eV/Angstrom)

 ><><><><><><><><><><><><><><><><><><><><><><><><><><><><><><><><><><><

 atom    x              y              z              
 Si1     +1.3467075          +0.39603228         -0.34356736         
 Si2     +0.10760544         +0.0026001257       -0.29613729         
 Si3     +1.8580818          +0.25660893         -0.13958619         
 Si4     -1.6565198          -0.52949405         +0.22442866         
 Si5     -0.35444707         -0.18433743         -0.34113501         
 Si6     -2.0608235          -0.60064875         +0.34426625         
 Si7     +1.2964783          +0.7138538          -0.041536204        
 Si8     -0.064699665        -0.28060873         -0.05654291         
 Si9     +1.5382339          +0.33223006         +0.020755321        
 Si10    -1.4047511          -0.14043679         +1.6061892          
 Si11    -0.20939692         +0.11928278         +0.99488328         
 Si12    -1.9890911          -0.078788009        +1.3856517          
 Si13    +1.509474           +0.071602783        -0.31567375         
 Si14    -0.21456006         -0.17728741         -0.54460416         
 Si15    +0.38703066         +0.01553084         -0.18717615         
 Si16    -1.8220793          -0.30680426         +0.35845934         
 Si17    -0.042403808        +0.31895019         -0.12919721         
 Si18    -0.52874444         +0.060877415        -0.52121284         
 Si19    +1.426229           +0.049923911        +0.17105166         
 Si20    +0.23744243         +0.12734051         -0.1389582          
 Si21    +0.77132436         -0.24343934         +0.091041176        
 Si22    -1.4053257          -0.4727278          +1.7314454          
 Si23    +0.19143336         +0.41581384         +1.2593616          
 Si24    -0.34614233         +0.22896416         +0.99945983         
 Si25    -0.021252925        -0.018671026        -0.39425985         
 Si26    -0.17318899         +0.046574184        -0.48423346         
 Si27    -0.27436178         -0.18570174         -0.36457935         
 Si28    -0.16235182         -0.056584672        +0.023950053        
 Si29    +0.10699029         -0.064375612        -0.25117432         
 Si30    +0.15437316         +0.26386916         -0.20282331         
 Si31    +0.0029970786       +0.0069037861       -0.32848596         
 Si32    -0.33210016         -0.21969284         +0.31292433         
 Si33    -0.42068005         -0.090920759        +0.14615606         
 Si34    -0.029822197        +0.37233247         +1.0366742          
 Si35    +0.35188367         +0.1228223          +1.3005032          
 Si36    -0.025929918        +0.34469055         +1.2169737          
 C1      +1.4814448          +0.57895302         -0.40866807         
 C2      +0.40740947         +0.17878023         +0.2367051          
 C3      +2.0982185          +0.5955066          -0.077249691        
 C4      -1.1557581          -0.3318692          +0.17436195         
 C5      +0.20374423         -0.023181447        +0.29091903         
 C6      -1.892043           -0.34920848         -0.39542602         
 C7      +1.64072            +0.1920231          -0.24260701         
 C8      +0.46725135         -0.078776615        +0.48341367         
 C9      +1.8453285          +0.57614438         +0.039652369        
 C10     -1.5150576          -0.49554305         -1.2122846          
 C11     -0.10106833         -0.061848068        -1.1419133          
 C12     -2.0432467          -0.74191025         -1.2549838          
 C13     +1.6877552          +0.53090484         -0.39794719         
 C14     +0.02923257         -0.2130722          +0.130069           
 C15     +0.50259063         +0.015905658        +0.092092769        
 C16     -1.1226393          -0.34448941         -0.19437201         
 C17     -0.089265366        +0.027211111        +0.21182557         
 C18     -0.46774766         +0.2805201          -0.0030594297       
 C19     +1.6814961          +0.76683398         -0.38335363         
 C20     +0.2141287          -0.21070205         +0.044079131        
 C21     +0.40456935         -0.10104535         +0.3566689          
 C22     -1.6519968          -0.64697078         -1.0918922          
 C23     +0.057066671        -0.0072631386       -1.028001           
 C24     -0.47043362         -0.15636024         -1.1283528          
 C25     +0.061911843        -0.16612749         +0.15790699         
 C26     -0.47747327         -0.083952177        +0.21950746         
 C27     -0.079052816        -0.051389758        +0.026343719        
 C28     +0.10948261         +0.040914174        +0.25866765         
 C29     +0.53053698         +0.14809965         +0.22885692         
 C30     +0.17952884         -0.24566795         +0.12511627         
 C31     -0.1902862          -0.043695212        +0.30042068         
 C32     -0.49968501         -0.029898764        +0.23773375         
 C33     -0.52064921         -0.016213749        -0.088770563        
 C34     +0.2247058          -0.27265286         -0.94852278         
 C35     +0.30685259         +0.059437582        -1.0229563          
 C36     +0.39481614         +0.064318975        -0.73727208         


 ><><><><><><><><><><><><><><><><><><><><><><><><><><><><><><><><><><><

 TOTAL-STRESS (KBAR)

 ><><><><><><><><><><><><><><><><><><><><><><><><><><><><><><><><><><><

 +96.772270             -21.967274             -11.245634             
 -21.967274             -11.697437             -17.638352             
 -11.245634             -17.638352             -52.793759             
 TOTAL-PRESSURE: +10.760358 KBAR


 ------------------------------------------------------------------------------------------------
 Energy              Potential           Kinetic             Temperature         Pressure (KBAR)     
 -347.38043          -347.4035           +0.023073501        +68.413394          +11.642083          
 ------------------------------------------------------------------------------------------------

output Pressure for check!
Virtual Pressure is +11.642083 Kbar 
Virial Term is +10.760358 Kbar 
Kenetic Term is +0.88172532 Kbar 


 ><><><><><><><><><><><><><><><><><><><><><><><><><><><><><><><><><><><

 MD STRESS (KBAR)

 ><><><><><><><><><><><><><><><><><><><><><><><><><><><><><><><><><><><

+97.582786     -22.250476     -11.318974     
-22.250476     -10.655286     -17.661426     
-11.318974     -17.661426     -52.00125      



 -------------------------------------------
 STEP OF MOLECULAR DYNAMICS : 4
 -------------------------------------------
 second order charge density extrapolation !
 searching radius is (Bohr))              = +25.29
 searching radius unit is (Bohr))         = +1.8897261
+1630674
 DONE : INIT SCF Time : +5188.53 (SEC)


 LCAO ALGORITHM --------------- ION=+5    ELEC=+1  --------------------------------

 Density error is +0.00239186011897

 LCAO ALGORITHM --------------- ION=+5    ELEC=+2  --------------------------------

 Density error is +0.00144043414932

 LCAO ALGORITHM --------------- ION=+5    ELEC=+3  --------------------------------

 Density error is +0.00135275801837

 LCAO ALGORITHM --------------- ION=+5    ELEC=+4  --------------------------------

 Density error is +0.000331895606463

 LCAO ALGORITHM --------------- ION=+5    ELEC=+5  --------------------------------

 Density error is +0.000236814508238

 LCAO ALGORITHM --------------- ION=+5    ELEC=+6  --------------------------------

 Density error is +9.4163883965e-05

 LCAO ALGORITHM --------------- ION=+5    ELEC=+7  --------------------------------

 Density error is +3.8676275033e-05

 LCAO ALGORITHM --------------- ION=+5    ELEC=+8  --------------------------------

 Density error is +6.72601688215e-06

 LCAO ALGORITHM --------------- ION=+5    ELEC=+9  --------------------------------

 Density error is +2.6716892346e-06

 LCAO ALGORITHM --------------- ION=+5    ELEC=+10 --------------------------------

 Density error is +1.06022849305e-06

 LCAO ALGORITHM --------------- ION=+5    ELEC=+11 --------------------------------

 Density error is +6.42537718814e-07

 charge density convergence is achieved
 final etot is -9453.32890252 eV

 ><><><><><><><><><><><><><><><><><><><><><><><><><><><><><><><><><><><

    TOTAL-FORCE (eV/Angstrom)

 ><><><><><><><><><><><><><><><><><><><><><><><><><><><><><><><><><><><

 atom    x              y              z              
 Si1     +1.3170986          +0.34980919         -0.38406893         
 Si2     +0.29792973         -0.050400269        -0.23086            
 Si3     +1.9054302          +0.32297226         -0.11515071         
 Si4     -1.5735172          -0.49977414         +0.25520767         
 Si5     -0.36074921         -0.23296721         -0.32613623         
 Si6     -1.929528           -0.68204121         +0.21896933         
 Si7     +1.2935156          +0.72828837         +0.047747457        
 Si8     +0.052697287        -0.397786           +0.018470731        
 Si9     +1.4017812          +0.33803328         +0.0055249877       
 Si10    -1.3994909          -0.15958456         +1.6298359          
 Si11    -0.18722069         +0.17537539         +1.0128021          
 Si12    -2.0597436          -0.13005017         +1.4440455          
 Si13    +1.3626922          +0.08803062         -0.26076088         
 Si14    -0.18852066         -0.18637952         -0.39029229         
 Si15    +0.38998645         +0.021385607        -0.052348092        
 Si16    -1.885198           -0.24292835         +0.28958683         
 Si17    -0.065017692        +0.31584525         -0.15717767         
 Si18    -0.41472306         -0.016402158        -0.59122142         
 Si19    +1.5572669          +0.00028219654      +0.22976786         
 Si20    +0.1743846          +0.072292971        -0.16085507         
 Si21    +0.81131568         -0.29998066         +0.049012573        
 Si22    -1.4413402          -0.46603144         +1.7809659          
 Si23    +0.05324258         +0.55130293         +1.2236151          
 Si24    -0.3970438          +0.28767246         +0.99729403         
 Si25    +0.054705114        -0.04061079         -0.5298175          
 Si26    -0.091210326        +0.029741989        -0.49796901         
 Si27    -0.22926346         -0.071014568        -0.48605146         
 Si28    -0.17172602         +0.093057684        +0.017538773        
 Si29    +0.14541266         +0.072290127        -0.19160999         
 Si30    +0.15374652         +0.34539531         -0.072668281        
 Si31    +0.0034678828       -0.096863452        -0.41658306         
 Si32    -0.44417055         -0.2388099          +0.38645074         
 Si33    -0.45853842         +0.032441171        +0.18167923         
 Si34    -0.058939167        +0.32853693         +1.006583           
 Si35    +0.36954064         +0.13185799         +1.313142           
 Si36    +0.11866739         +0.29643838         +1.1227658          
 C1      +1.5144867          +0.45921638         -0.32977917         
 C2      +0.26649454         +0.24762481         +0.23495399         
 C3      +2.0620542          +0.62832033         -0.18402751         
 C4      -1.2700547          -0.48576845         +0.27459511         
 C5      +0.34907274         +0.12097177         +0.18667542         
 C6      -1.9907644          -0.17335838         -0.38117858         
 C7      +1.6903685          +0.29617475         -0.32783373         
[...]
 C16     -0.98819207         -0.74142166         -0.42404354         
 C17     +0.19949541         +0.37591656         +0.36584398         
 C18     -0.4589873          +0.40398166         +0.62038608         
 C19     +1.8328612          +0.73445947         -0.40557254         
 C20     +0.32085489         -0.38887515         +0.47778681         
 C21     +0.45466379         +0.2451429          +0.22924849         
 C22     -1.839014           -0.62955273         -1.0056072          
 C23     -0.18402575         +0.035301187        -0.70110463         
 C24     -1.0946702          -0.13113532         -1.431923           
 C25     -0.25461739         -0.23783244         +0.10579066         
 C26     -0.8664755          +0.24997933         +0.43662974         
 C27     -0.63368755         -0.27864638         +0.20675717         
 C28     +0.054455435        +0.19980398         -0.3408758          
 C29     +0.54590092         -0.080157372        +0.005665497        
 C30     -0.093434074        -0.35510391         +0.19762244         
 C31     -0.13272624         -0.30095677         +0.71468577         
 C32     -0.17203667         +0.092124406        +0.26465085         
 C33     -0.65659393         +0.12445891         +0.051114784        
 C34     +0.10923957         -0.1133914          -0.83197694         
 C35     +0.35134493         +0.85212957         -1.2874178          
 C36     +0.1045358          +0.12230468         -0.41807021         


 ><><><><><><><><><><><><><><><><><><><><><><><><><><><><><><><><><><><

 TOTAL-STRESS (KBAR)

 ><><><><><><><><><><><><><><><><><><><><><><><><><><><><><><><><><><><

 +93.805826             -20.948656             -9.676151              
 -20.948656             -11.161095             -18.668000             
 -9.676151              -18.668000             -50.544408             
 TOTAL-PRESSURE: +10.700108 KBAR


 ------------------------------------------------------------------------------------------------
 Energy              Potential           Kinetic             Temperature         Pressure (KBAR)     
 -347.32197          -347.3999           +0.077934795        +231.07823          +13.67829           
 ------------------------------------------------------------------------------------------------

output Pressure for check!
Virtual Pressure is +13.67829 Kbar 
Virial Term is +10.700108 Kbar 
Kenetic Term is +2.9781819 Kbar 


 ><><><><><><><><><><><><><><><><><><><><><><><><><><><><><><><><><><><

 MD STRESS (KBAR)

 ><><><><><><><><><><><><><><><><><><><><><><><><><><><><><><><><><><><

+96.40677      -21.136034     -9.2504937     
-21.136034     -8.1593779     -18.962089     
-9.2504937     -18.962089     -47.212523     



 -------------------------------------------
 STEP OF MOLECULAR DYNAMICS : 10
 -------------------------------------------
 second order charge density extrapolation !
 searching radius is (Bohr))              = +25.29
 searching radius unit is (Bohr))         = +1.8897261
+1631510
 DONE : INIT SCF Time : +12443.7 (SEC)


 LCAO ALGORITHM --------------- ION=+11   ELEC=+1  --------------------------------

 Density error is +0.0035753769196

 LCAO ALGORITHM --------------- ION=+11   ELEC=+2  --------------------------------

 Density error is +0.00205397233909

 LCAO ALGORITHM --------------- ION=+11   ELEC=+3  --------------------------------

 Density error is +0.00183000807187

 LCAO ALGORITHM --------------- ION=+11   ELEC=+4  --------------------------------

 Density error is +0.000507565964614

 LCAO ALGORITHM --------------- ION=+11   ELEC=+5  --------------------------------

 Density error is +0.000410511716735

 LCAO ALGORITHM --------------- ION=+11   ELEC=+6  --------------------------------

 Density error is +0.000131677066988

 LCAO ALGORITHM --------------- ION=+11   ELEC=+7  --------------------------------

 Density error is +5.16541119555e-05

 LCAO ALGORITHM --------------- ION=+11   ELEC=+8  --------------------------------

 Density error is +1.05203743257e-05

 LCAO ALGORITHM --------------- ION=+11   ELEC=+9  --------------------------------

 Density error is +5.10192498492e-06

 LCAO ALGORITHM --------------- ION=+11   ELEC=+10 --------------------------------

 Density error is +2.52050769914e-06

 LCAO ALGORITHM --------------- ION=+11   ELEC=+11 --------------------------------

 Density error is +1.2784945109e-06

 LCAO ALGORITHM --------------- ION=+11   ELEC=+12 --------------------------------

 Density error is +4.14157194993e-07

 charge density convergence is achieved
 final etot is -9453.24357247 eV

 ><><><><><><><><><><><><><><><><><><><><><><><><><><><><><><><><><><><

    TOTAL-FORCE (eV/Angstrom)

 ><><><><><><><><><><><><><><><><><><><><><><><><><><><><><><><><><><><

 atom    x              y              z              
 Si1     +1.0225156          -0.034297965        -0.43405163         
 Si2     -0.14058539         +0.035050032        -0.40961151         
 Si3     +2.01822            +0.3656946          +0.082930834        
 Si4     -1.031357           -0.019662559        +0.021032355        
 Si5     -0.062572058        +0.040577562        -0.51597862         
 Si6     -1.5753609          -1.0438283          -0.24264549         
 Si7     +1.1843691          +0.76738574         -0.26502974         
 Si8     +0.44697484         -0.47125146         -0.025220632        
 Si9     +1.4187186          +0.22277173         -0.22718741         
 Si10    -0.72228376         -0.026619589        +1.2011907          
 Si11    +0.25696109         +0.32543129         +1.1089248          
 Si12    -2.4928335          -0.51800106         +1.7016913          
 Si13    +1.6606779          -0.31451658         -0.66480531         
 Si14    -0.087510507        -0.30278199         -0.95235591         
 Si15    +0.68218894         -0.14513001         +0.3184795          
 Si16    -1.7082203          -0.25455889         +0.13157964         
 Si17    -0.082573602        +0.74414681         -0.01392617         
 Si18    -0.24700919         +0.10407121         -0.89901761         
 Si19    +1.8941363          +0.12263933         -0.033865096        
 Si20    +0.052691682        -0.30349029         -0.26059935         
 Si21    +0.70283966         -0.67970174         +0.10781695         
 Si22    -1.2631062          -0.44059492         +1.6676758          
 Si23    -0.11589102         +0.54417352         +0.8299705          
 Si24    -0.67392718         -0.0025706493       +0.95766395         
 Si25    +0.14356044         -0.36788672         -0.63124348         
 Si26    +0.14872695         -0.041956197        -0.55966756         
 Si27    +0.052965414        -0.55164081         -0.42863839         
 Si28    -0.44695286         +0.073584446        +0.19973727         
 Si29    +0.075888219        +0.092874174        -0.10657458         
 Si30    +0.011833481        +0.40260435         -0.077240289        
 Si31    +0.27847369         +0.029545931        -0.50961295         
 Si32    -0.54823234         -0.18820515         +0.10231097         
 Si33    -0.73216312         -0.32770389         +0.011895339        
 Si34    +0.00023957187      +0.53966897         +1.0409402          
 Si35    +0.67381106         -0.19922061         +1.4631975          
 Si36    -0.13273709         +0.42056009         +1.0325261          
 C1      +1.5585174          +0.31791687         -0.50102618         
 C2      +0.60144914         +0.60994318         +0.72881496         
 C3      +1.6238181          +0.13850581         -0.2217452          
 C4      -1.4912135          +0.14186035         +0.50698125         
 C5      -0.011176221        -0.28840008         +0.55608602         
 C6      -1.67188            -0.055510235        +0.187256           
 C7      +1.9921128          +0.74771818         -0.57353379         
 C8      +0.34733476         -0.037166727        +0.61327311         
 C9      +0.95761103         +0.23621381         +0.0089728673       
 C10     -1.5471391          +0.057519447        -1.1594991          
 C11     -0.19989686         -0.19961168         -1.0709821          
 C12     -1.4430451          -0.587052           -1.2328721          
 C13     +1.8350918          +0.62991165         +0.01611745         
 C14     +0.32623651         -0.68030996         +0.62369826         
 C15     +0.46318819         -0.20218542         -0.13933693         
 C16     -1.1029961          -0.87812637         -0.25963953         
 C17     +0.29772099         +0.59979064         +0.22656765         
 C18     -0.43229287         +0.43397119         +0.58420166         
 C19     +1.8777796          +0.76017775         -0.28322075         
 C20     +0.27042741         -0.60541581         +0.41636737         
 C21     +0.37063154         +0.29680243         +0.20342944         
 C22     -1.7295482          -0.67694398         -0.91559074         
 C23     -0.2203992          +0.12045961         -0.5800171          
 C24     -1.0244004          +0.024747611        -1.2866662          
 C25     -0.35787155         -0.47108671         +0.091634852        
 C26     -1.1069494          +0.23698533         +0.55481716         
 C27     -0.50083413         -0.46078068         +0.1904445          
 C28     -0.17593255         +0.3609368          -0.52228487         
 C29     +0.69006476         +0.039125341        +0.07048538         
 C30     -0.17537143         -0.10288766         +0.29597895         
 C31     -0.066108018        -0.3897042          +0.56861555         
 C32     -0.44104456         +0.34389996         +0.29530299         
 C33     -0.52322297         +0.05084556         +0.052445497        
 C34     +0.076417069        +0.128928           -1.020208           
 C35     +0.11835081         +0.72174213         -1.3352542          
 C36     +0.15209384         +0.040019489        -0.41190606         


 ><><><><><><><><><><><><><><><><><><><><><><><><><><><><><><><><><><><

 TOTAL-STRESS (KBAR)

 ><><><><><><><><><><><><><><><><><><><><><><><><><><><><><><><><><><><

 +91.484451             -22.199767             -9.064995              
 -22.199767             -10.035567             -19.059014             
 -9.064995              -19.059014             -49.639727             
 TOTAL-PRESSURE: +10.603052 KBAR


 ------------------------------------------------------------------------------------------------
 Energy              Potential           Kinetic             Temperature         Pressure (KBAR)     
 -347.29593          -347.40017          +0.10423755         +309.06642          +14.586361          
 ------------------------------------------------------------------------------------------------

output Pressure for check!
Virtual Pressure is +14.586361 Kbar 
Virial Term is +10.603052 Kbar 
Kenetic Term is +3.983309 Kbar 


 ><><><><><><><><><><><><><><><><><><><><><><><><><><><><><><><><><><><

 MD STRESS (KBAR)

 ><><><><><><><><><><><><><><><><><><><><><><><><><><><><><><><><><><><

+95.401255     -21.958694     -9.3343416     
-21.958694     -5.8653096     -19.428928     
-9.3343416     -19.428928     -45.776862     




 --------------------------------------------
 !FINAL_ETOT_IS -9453.243572468791 eV
 --------------------------------------------






  |CLASS_NAME---------|NAME---------------|TIME(Sec)-----|CALLS----|AVG------|PER%-------
                       total               +13731         27        +5.1e+02  +1e+02    %
   Driver              driver_line         +13731         1         +1.4e+04  +1e+02    %
   PW_Basis            setup_struc_factor  +1.2144        11        +0.11     +0.0088   %
   ORB_control         read_orb_first      +0.233         1         +0.23     +0.0017   %
   LCAO_Orbitals       Read_Orbitals       +0.233         1         +0.23     +0.0017   %
   NOrbital_Lm         extra_uniform       +0.12643       16        +0.0079   +0.00092  %
   Mathzone_Add1       Uni_Deriv_Phi       +0.11131       16        +0.007    +0.00081  %
   ORB_control         set_orb_tables      +6.968         1         +7        +0.051    %
   ORB_gen_tables      gen_tables          +6.968         1         +7        +0.051    %
   ORB_table_phi       init_Table          +5.1413        1         +5.1      +0.037    %
   ORB_table_phi       cal_ST_Phi12_R      +5.0997        558       +0.0091   +0.037    %
   ORB_table_beta      init_Table_Beta     +1.3369        1         +1.3      +0.0097   %
   ORB_table_beta      VNL_PhiBeta_R       +1.3281        168       +0.0079   +0.0097   %
   ppcell_vl           init_vloc           +0.26277       1         +0.26     +0.0019   %
   Run_MD              md_line             +13724         1         +1.4e+04  +1e+02    %
   Langevin            setup               +1902.4        1         +1.9e+03  +14       %
   MD_func             force_stress        +13723         11        +1.2e+03  +1e+02    %
   ESolver_KS_LCAO     Run                 +12667         11        +1.2e+03  +92       %
   ESolver_KS_LCAO     beforescf           +26.509        11        +2.4      +0.19     %
   ESolver_KS_LCAO     beforesolver        +10.49         11        +0.95     +0.076    %
   ESolver_KS_LCAO     set_matrix_grid     +6.0908        11        +0.55     +0.044    %
   atom_arrange        search              +0.10291       11        +0.0094   +0.00075  %
   Grid_Technique      init                +3.2016        11        +0.29     +0.023    %
   Grid_BigCell        grid_expansion_index+0.98048       22        +0.045    +0.0071   %
   Record_adj          for_2d              +2.4594        11        +0.22     +0.018    %
   Grid_Driver         Find_atom           +16.651        688536    +2.4e-05  +0.12     %
   Charge              atomic_rho          +13.925        21        +0.66     +0.1      %
   PW_Basis            recip2real          +2.0995        755       +0.0028   +0.015    %
   PW_Basis            gathers_scatterp    +1.0382        755       +0.0014   +0.0076   %
   Potential           init_pot            +0.8894        11        +0.081    +0.0065   %
   Potential           update_from_charge  +10.127        138       +0.073    +0.074    %
   Potential           cal_v_eff           +10.08         138       +0.073    +0.073    %
   H_Hartree_pw        v_hartree           +1.0537        138       +0.0076   +0.0077   %
   PW_Basis            real2recip          +2.9185        1148      +0.0025   +0.021    %
   PW_Basis            gatherp_scatters    +1.1829        1148      +0.001    +0.0086   %
   PotXC               cal_v_eff           +8.9333        138       +0.065    +0.065    %
   XC_Functional       v_xc                +8.871         138       +0.064    +0.065    %
   HSolverLCAO         solve               +12618         127       +99       +92       %
   HamiltLCAO          updateHk            +4547.3        4572      +0.99     +33       %
   OperatorLCAO        init                +3828.1        9144      +0.42     +28       %
   Veff                contributeHk        +3825.6        4572      +0.84     +28       %
   Gint_interface      cal_gint            +6143.4        265       +23       +45       %
   Gint_interface      cal_gint_vlocal     +2957.3        127       +23       +22       %
   Gint_k              folding_vl_k        +868.25        4572      +0.19     +6.3      %
   Gint_k              Distri              +614.8         4572      +0.13     +4.5      %
   Overlap             contributeHR        +4.7972        11        +0.44     +0.035    %
   LCAO_gen_fixedH     calculate_S_no      +4.7971        11        +0.44     +0.035    %
   Ekinetic<OperatorLCAO>contributeHR        +4.9421        11        +0.45     +0.036    %
   Nonlocal<OperatorLCAO>contributeHR        +50.751        11        +4.6      +0.37     %
   LCAO_gen_fixedH     build_Nonlocal_mu_new+160.37        22        +7.3      +1.2      %
   ORB_gen_tables      snap_psibeta_half   +3.4825        1247814   +2.8e-06  +0.025    %
   OperatorLCAO        folding_fixed       +658.66        4572      +0.14     +4.8      %
   LCAO_nnr            folding_fixedH      +650.58        4572      +0.14     +4.7      %
   HSolverLCAO         hamiltSolvePsiK     +1941.4        4572      +0.42     +14       %
   DiagoElpa           elpa_solve          +1926.8        4572      +0.42     +14       %
   ElecStateLCAO       psiToRho            +6129          127       +48       +45       %
   elecstate           cal_dm              +158.37        138       +1.1      +1.2      %
   psiMulPsiMpi        pdgemm              +153.07        4968      +0.031    +1.1      %
    Local_Orbital_wfc  wfc_2d_to_grid      +28.186        4572      +0.0062   +0.21     %
   LCAO_Charge         cal_dk_k            +3333.9        127       +26       +24       %
   Record_adj          for_grid            +0.69252       127       +0.0055   +0.005    %
   Gint_interface      cal_gint_rho        +2628.9        127       +21       +19       %
   Charge              mix_rho             +1.5286        116       +0.013    +0.011    %
   Force_Stress_LCAO   getForceStress      +1056.6        11        +96       +7.7      %
   Forces              cal_force_loc       +0.92314       11        +0.084    +0.0067   %
   Forces              cal_force_ew        +0.91009       11        +0.083    +0.0066   %
   Forces              cal_force_scc       +7.8712        11        +0.72     +0.057    %
   Stress_Func         stress_loc          +6.7557        11        +0.61     +0.049    %
   Stress_Func         stress_ewa          +0.41039       11        +0.037    +0.003    %
   Stress_Func         stress_gga          +0.43026       11        +0.039    +0.0031   %
   Force_LCAO_k        ftable_k            +1039.2        11        +94       +7.6      %
   Force_LCAO_k        allocate_k          +142.14        11        +13       +1        %
   Force_LCAO_k        cal_foverlap_k      +27.745        11        +2.5      +0.2      %
   Force_LCAO_k        cal_edm_2d          +26.745        11        +2.4      +0.19     %
   Local_Orbital_Chargecal_dm_R            +12.379        22        +0.56     +0.09     %
   Force_LCAO_k        cal_ftvnl_dphi_k    +0.31606       11        +0.029    +0.0023   %
   Force_LCAO_k        cal_fvl_dphi_k      +557.21        11        +51       +4.1      %
   Gint_interface      cal_gint_force      +557.21        11        +51       +4.1      %
   Force_LCAO_k        cal_fvnl_dbeta_k_new+289.85        11        +26       +2.1      %
 ----------------------------------------------------------------------------------------

 CLASS_NAME---------|NAME---------------|MEMORY(MB)--------
                                         +2.791e+04
 ORB_table_phi       Jl(x)               +138.2         
 allocate_pvpR       pvpR_reduced        +89.8          
 LocalOrbital_Charge Density_Matrix      +89.8          
 stress_lo           dSR                 +74.68         
 force_lo            dS                  +37.34         
 force_lo            dTVNL               +37.34         
 Force_LCAO_k        dm2d                +12.45         
 ORB_table_phi       Table_SR&TR         +10.58         
 Grid_Meshcell       index2normal        +8.435         
 Grid_Meshcell       index2ucell         +8.435         
 Charge_Mixing       Rrho                +7.031         
 Charge_Mixing       dRrho               +6.152         
 Charge_Mixing       drho                +6.152         
 LocalOrbital_Coef   wfc_k_grid          +4.181         
 init_meshball       meshball_pos        +3.618         
 atoms_on_grid       which_atom          +2.727         
 atoms_on_grid       which_bigcell       +2.727         
 atoms_on_grid       which_unitcell      +2.727         
 ORB_table_beta      Table_NR            +2.045         
 PW_Basis            struc_fac           +1.323         
 ----------------------------------------------------------

 Start  Time  : Mon May 22 14:16:30 2023
 Finish Time  : Mon May 22 18:05:22 2023
 Total  Time  : 3 h 48 mins 52 secs 
