WARNING: Total thread number on this node mismatches with hardware availability. This may cause poor performance.
Info: Local MPI proc number: 16,OpenMP thread number: 1,Total thread number: 16,Local thread limit: 32
 *********************************************************
 *                                                       *
 *                  WELCOME TO ABACUS v3.0               *
 *                                                       *
 *            'Atomic-orbital Based Ab-initio            *
 *                  Computation at UStc'                 *
 *                                                       *
 *          Website: http://abacus.ustc.edu.cn/          *
 *                                                       *
 *********************************************************
 Mon May 22 14:16:30 2023
 MAKE THE DIR         : OUT.ABACUS/
 MAKE THE STRU DIR    : OUT.ABACUS/STRU/
 UNIFORM GRID DIM     : 120 * 120 * 128
 UNIFORM GRID DIM(BIG): 60 * 60 * 64
 DONE(0.121558   SEC) : SETUP UNITCELL
 DONE(0.131297   SEC) : INIT K-POINTS
 ---------------------------------------------------------
 Molecular Dynamics simulations
 ---------------------------------------------------------
 ENSEMBLE                 : Langevin
 Time interval(fs)        : 1
 ---------------------------------------------------------
 SPIN    KPOINTS         PROCESSORS  NBASE       
 1       36              16          1584        
 ---------------------------------------------------------
 Use Systematically Improvable Atomic bases
 ---------------------------------------------------------
 ELEMENT ORBITALS        NBASE       NATOM       XC          
 Si      3s3p2d-9au      22          36          
 C       3s3p2d-9au      22          36          
 ---------------------------------------------------------
 Initial plane wave basis and FFT box
 ---------------------------------------------------------
--------------------------------- INITVEL DONE ------------------------------------
 -------------------------------------------
 STEP OF MOLECULAR DYNAMICS : 0
 -------------------------------------------
 START CHARGE      : atomic
 DONE(10.2317    SEC) : INIT SCF
 ITER   ETOT(eV)       EDIFF(eV)      DRHO       TIME(s)    
 GE1    -9.380773e+03  0.000000e+00   2.726e-01  1.060e+02  
 GE2    -9.435561e+03  -5.478818e+01  1.509e-01  9.989e+01  
 GE3    -9.447196e+03  -1.163440e+01  2.910e-02  9.992e+01  
 GE4    -9.429121e+03  1.807498e+01   7.103e-02  9.998e+01  
 GE5    -9.453041e+03  -2.392028e+01  1.076e-02  9.999e+01  
 GE6    -9.453257e+03  -2.157157e-01  6.044e-03  9.996e+01  
 GE7    -9.453298e+03  -4.110654e-02  2.376e-03  1.001e+02  
 GE8    -9.453313e+03  -1.464944e-02  1.768e-03  9.999e+01  
 GE9    -9.453312e+03  9.904475e-04   1.423e-03  9.982e+01  
 GE10   -9.453310e+03  1.471408e-03   9.540e-04  9.978e+01  
 GE11   -9.453313e+03  -3.278215e-03  3.023e-04  9.976e+01  
 GE12   -9.453314e+03  -2.506772e-04  8.614e-05  9.975e+01  
 GE13   -9.453314e+03  -2.042841e-05  2.255e-05  9.987e+01  
 GE14   -9.453314e+03  -7.948066e-07  9.757e-06  9.980e+01  
 GE15   -9.453314e+03  -1.031430e-07  7.982e-06  9.978e+01  
 GE16   -9.453314e+03  -1.939441e-07  3.130e-06  9.992e+01  
 GE17   -9.453314e+03  -1.872078e-08  2.284e-06  9.979e+01  
 GE18   -9.453314e+03  -1.020726e-08  8.856e-07  9.975e+01  
 ><><><><><><><><><><><><><><><><><><><><><><
 TOTAL-STRESS (KBAR):
 ><><><><><><><><><><><><><><><><><><><><><><
 9.626e+01      -2.196e+01     -1.043e+01     
 -2.196e+01     -1.069e+01     -1.771e+01     
 -1.043e+01     -1.771e+01     -5.305e+01     
 TOTAL-PRESSURE: 1.084e+01 KBAR
 ------------------------------------------------------------------------------------------------
 Energy              Potential           Kinetic             Temperature         Pressure (KBAR)     
 -3.474e+02          -3.474e+02          3.373e-03           1.000e+01           1.097e+01           
 ------------------------------------------------------------------------------------------------
 -------------------------------------------
 STEP OF MOLECULAR DYNAMICS : 1
 -------------------------------------------
 DONE(1.913e+03  SEC) : INIT SCF
 ITER   ETOT(eV)       EDIFF(eV)      DRHO       TIME(s)    
 GE1    -9.453337e+03  0.000000e+00   4.304e-04  1.045e+02  
 GE2    -9.453337e+03  7.933319e-06   2.265e-04  9.871e+01  
 GE3    -9.453337e+03  -8.772761e-05  2.215e-04  9.869e+01  
 GE4    -9.453337e+03  -1.451811e-04  5.932e-05  9.873e+01  
 GE5    -9.453337e+03  -1.017507e-05  4.392e-05  9.877e+01  
 GE6    -9.453337e+03  -7.689106e-06  1.596e-05  9.880e+01  
 GE7    -9.453337e+03  -8.636016e-07  5.835e-06  9.870e+01  
 GE8    -9.453337e+03  -1.116209e-07  1.217e-06  9.885e+01  
 GE9    -9.453337e+03  -3.330236e-09  4.673e-07  9.866e+01  
 ><><><><><><><><><><><><><><><><><><><><><><
 TOTAL-STRESS (KBAR):
 ><><><><><><><><><><><><><><><><><><><><><><
 9.610e+01      -2.223e+01     -1.049e+01     
 -2.223e+01     -1.087e+01     -1.772e+01     
 -1.049e+01     -1.772e+01     -5.299e+01     
 TOTAL-PRESSURE: 1.075e+01 KBAR
 ------------------------------------------------------------------------------------------------
 Energy              Potential           Kinetic             Temperature         Pressure (KBAR)     
 -3.474e+02          -3.474e+02          7.406e-03           2.196e+01           1.103e+01           
 ------------------------------------------------------------------------------------------------
 -------------------------------------------
 STEP OF MOLECULAR DYNAMICS : 2
 -------------------------------------------
 DONE(2.906e+03  SEC) : INIT SCF
 ITER   ETOT(eV)       EDIFF(eV)      DRHO       TIME(s)    
 GE1    -9.453367e+03  0.000000e+00   1.564e-03  1.043e+02  
 GE2    -9.453366e+03  7.145329e-04   1.001e-03  9.855e+01  
 GE3    -9.453368e+03  -2.406532e-03  8.678e-04  9.867e+01  
 GE4    -9.453371e+03  -2.179487e-03  2.432e-04  9.871e+01  
 GE5    -9.453371e+03  -1.854157e-04  1.731e-04  9.868e+01  
 GE6    -9.453371e+03  -1.142015e-04  5.765e-05  9.855e+01  
 GE7    -9.453371e+03  -1.052839e-05  2.614e-05  9.856e+01  
 GE8    -9.453371e+03  -2.183356e-06  5.352e-06  9.860e+01  
 GE9    -9.453371e+03  -8.234330e-08  1.997e-06  9.882e+01  
 GE10   -9.453371e+03  -6.877023e-09  5.990e-07  9.865e+01  
 ><><><><><><><><><><><><><><><><><><><><><><
 TOTAL-STRESS (KBAR):
 ><><><><><><><><><><><><><><><><><><><><><><
 9.591e+01      -2.225e+01     -1.081e+01     
 -2.225e+01     -1.113e+01     -1.788e+01     
 -1.081e+01     -1.788e+01     -5.306e+01     
 TOTAL-PRESSURE: 1.057e+01 KBAR
 ------------------------------------------------------------------------------------------------
 Energy              Potential           Kinetic             Temperature         Pressure (KBAR)     
 -3.474e+02          -3.474e+02          1.841e-02           5.459e+01           1.128e+01           
 ------------------------------------------------------------------------------------------------
 -------------------------------------------
 STEP OF MOLECULAR DYNAMICS : 3
 -------------------------------------------
 DONE(3.996e+03  SEC) : INIT SCF
 ITER   ETOT(eV)       EDIFF(eV)      DRHO       TIME(s)    
 GE1    -9.453328e+03  0.000000e+00   1.833e-03  1.047e+02  
 GE2    -9.453326e+03  2.108441e-03   1.201e-03  9.897e+01  
 GE3    -9.453329e+03  -2.910953e-03  1.127e-03  9.885e+01  
 GE4    -9.453334e+03  -4.392929e-03  3.388e-04  9.895e+01  
 GE5    -9.453334e+03  -3.839033e-04  1.801e-04  9.891e+01  
 GE6    -9.453334e+03  -1.137887e-04  6.120e-05  9.905e+01  
 GE7    -9.453334e+03  -1.111756e-05  2.738e-05  9.895e+01  
 GE8    -9.453334e+03  -2.616783e-06  7.883e-06  9.877e+01  
 GE9    -9.453334e+03  -1.946464e-07  3.674e-06  9.897e+01  
 GE10   -9.453334e+03  -5.278726e-08  1.791e-06  9.876e+01  
 GE11   -9.453334e+03  -1.017632e-08  5.531e-07  9.907e+01  
 ><><><><><><><><><><><><><><><><><><><><><><
 TOTAL-STRESS (KBAR):
 ><><><><><><><><><><><><><><><><><><><><><><
 9.677e+01      -2.197e+01     -1.125e+01     
 -2.197e+01     -1.170e+01     -1.764e+01     
 -1.125e+01     -1.764e+01     -5.279e+01     
 TOTAL-PRESSURE: 1.076e+01 KBAR
 ------------------------------------------------------------------------------------------------
 Energy              Potential           Kinetic             Temperature         Pressure (KBAR)     
 -3.474e+02          -3.474e+02          2.307e-02           6.841e+01           1.164e+01           
 ------------------------------------------------------------------------------------------------
 -------------------------------------------
 STEP OF MOLECULAR DYNAMICS : 4
 -------------------------------------------
 DONE(5.189e+03  SEC) : INIT SCF
 ITER   ETOT(eV)       EDIFF(eV)      DRHO       TIME(s)    
 GE1    -9.453320e+03  0.000000e+00   2.392e-03  1.048e+02  
 GE2    -9.453318e+03  1.857003e-03   1.440e-03  9.899e+01  
 GE3    -9.453323e+03  -5.098287e-03  1.353e-03  9.898e+01  
 GE4    -9.453328e+03  -5.372118e-03  3.319e-04  9.892e+01  
 GE5    -9.453329e+03  -2.866532e-04  2.368e-04  9.897e+01  
 GE6    -9.453329e+03  -2.237006e-04  9.416e-05  9.902e+01  
 GE7    -9.453329e+03  -3.031924e-05  3.868e-05  9.895e+01  
 GE8    -9.453329e+03  -4.839144e-06  6.726e-06  9.900e+01  
 GE9    -9.453329e+03  -1.021994e-07  2.672e-06  9.914e+01  
 GE10   -9.453329e+03  -1.559318e-08  1.060e-06  9.904e+01  
 GE11   -9.453329e+03  1.500385e-10   6.425e-07  9.909e+01  
 ><><><><><><><><><><><><><><><><><><><><><><
 TOTAL-STRESS (KBAR):
 ><><><><><><><><><><><><><><><><><><><><><><
 9.643e+01      -2.169e+01     -1.089e+01     
 -2.169e+01     -1.107e+01     -1.760e+01     
 -1.089e+01     -1.760e+01     -5.331e+01     
 TOTAL-PRESSURE: 1.068e+01 KBAR
 ------------------------------------------------------------------------------------------------
 Energy              Potential           Kinetic             Temperature         Pressure (KBAR)     
 -3.474e+02          -3.474e+02          3.847e-02           1.141e+02           1.215e+01           
 ------------------------------------------------------------------------------------------------
 -------------------------------------------
 STEP OF MOLECULAR DYNAMICS : 5
 -------------------------------------------
 DONE(6.382e+03  SEC) : INIT SCF
 ITER   ETOT(eV)       EDIFF(eV)      DRHO       TIME(s)    
 GE1    -9.453308e+03  0.000000e+00   2.662e-03  1.049e+02  
 GE2    -9.453304e+03  4.284796e-03   1.635e-03  9.874e+01  
 GE3    -9.453310e+03  -6.340610e-03  1.628e-03  9.880e+01  
 GE4    -9.453318e+03  -8.363639e-03  3.894e-04  9.886e+01  
 GE5    -9.453319e+03  -4.051006e-04  2.671e-04  9.901e+01  
 GE6    -9.453319e+03  -2.905074e-04  1.052e-04  9.886e+01  
 GE7    -9.453319e+03  -3.520301e-05  3.691e-05  9.891e+01  
 GE8    -9.453319e+03  -4.302990e-06  6.211e-06  9.879e+01  
 GE9    -9.453319e+03  -9.515845e-08  2.911e-06  9.894e+01  
 GE10   -9.453319e+03  -2.359936e-08  1.126e-06  9.874e+01  
 GE11   -9.453319e+03  -2.422271e-09  5.429e-07  9.895e+01  
 ><><><><><><><><><><><><><><><><><><><><><><
 TOTAL-STRESS (KBAR):
 ><><><><><><><><><><><><><><><><><><><><><><
 9.701e+01      -2.138e+01     -1.088e+01     
 -2.138e+01     -1.226e+01     -1.778e+01     
 -1.088e+01     -1.778e+01     -5.274e+01     
 TOTAL-PRESSURE: 1.067e+01 KBAR
 ------------------------------------------------------------------------------------------------
 Energy              Potential           Kinetic             Temperature         Pressure (KBAR)     
 -3.474e+02          -3.474e+02          4.468e-02           1.325e+02           1.238e+01           
 ------------------------------------------------------------------------------------------------
 -------------------------------------------
 STEP OF MOLECULAR DYNAMICS : 6
 -------------------------------------------
 DONE(7.574e+03  SEC) : INIT SCF
 ITER   ETOT(eV)       EDIFF(eV)      DRHO       TIME(s)    
 GE1    -9.453332e+03  0.000000e+00   2.747e-03  1.049e+02  
 GE2    -9.453334e+03  -1.206350e-03  1.556e-03  9.904e+01  
 GE3    -9.453338e+03  -4.830551e-03  1.249e-03  9.901e+01  
 GE4    -9.453343e+03  -4.234573e-03  3.629e-04  9.907e+01  
 GE5    -9.453343e+03  -2.905019e-04  2.521e-04  9.905e+01  
 GE6    -9.453343e+03  -2.679827e-04  1.146e-04  9.925e+01  
 GE7    -9.453343e+03  -4.689359e-05  3.815e-05  9.898e+01  
 GE8    -9.453343e+03  -5.198087e-06  8.239e-06  9.903e+01  
 GE9    -9.453343e+03  -1.807376e-07  3.118e-06  9.907e+01  
 GE10   -9.453343e+03  -2.948025e-08  1.609e-06  9.905e+01  
 GE11   -9.453343e+03  -2.867746e-09  8.858e-07  9.924e+01  
 ><><><><><><><><><><><><><><><><><><><><><><
 TOTAL-STRESS (KBAR):
 ><><><><><><><><><><><><><><><><><><><><><><
 9.644e+01      -2.163e+01     -1.036e+01     
 -2.163e+01     -1.210e+01     -1.765e+01     
 -1.036e+01     -1.765e+01     -5.254e+01     
 TOTAL-PRESSURE: 1.060e+01 KBAR
 ------------------------------------------------------------------------------------------------
 Energy              Potential           Kinetic             Temperature         Pressure (KBAR)     
 -3.473e+02          -3.474e+02          6.259e-02           1.856e+02           1.299e+01           
 ------------------------------------------------------------------------------------------------
 -------------------------------------------
 STEP OF MOLECULAR DYNAMICS : 7
 -------------------------------------------
 DONE(8.768e+03  SEC) : INIT SCF
 ITER   ETOT(eV)       EDIFF(eV)      DRHO       TIME(s)    
 GE1    -9.453229e+03  0.000000e+00   3.334e-03  1.047e+02  
 GE2    -9.453224e+03  4.725265e-03   1.880e-03  9.890e+01  
 GE3    -9.453232e+03  -8.239628e-03  1.825e-03  9.886e+01  
 GE4    -9.453244e+03  -1.147677e-02  4.888e-04  9.882e+01  
 GE5    -9.453244e+03  -7.143558e-04  3.231e-04  9.890e+01  
 GE6    -9.453245e+03  -3.939669e-04  1.342e-04  9.886e+01  
 GE7    -9.453245e+03  -5.927796e-05  4.753e-05  9.887e+01  
 GE8    -9.453245e+03  -7.796765e-06  9.880e-06  9.875e+01  
 GE9    -9.453245e+03  -2.712727e-07  3.850e-06  9.876e+01  
 GE10   -9.453245e+03  -3.623971e-08  1.383e-06  9.884e+01  
 GE11   -9.453245e+03  -5.834487e-09  1.037e-06  9.891e+01  
 GE12   -9.453245e+03  -2.703787e-09  3.725e-07  9.878e+01  
 ><><><><><><><><><><><><><><><><><><><><><><
 TOTAL-STRESS (KBAR):
 ><><><><><><><><><><><><><><><><><><><><><><
 9.572e+01      -2.033e+01     -9.594e+00     
 -2.033e+01     -1.118e+01     -1.788e+01     
 -9.594e+00     -1.788e+01     -5.178e+01     
 TOTAL-PRESSURE: 1.092e+01 KBAR
 ------------------------------------------------------------------------------------------------
 Energy              Potential           Kinetic             Temperature         Pressure (KBAR)     
 -3.473e+02          -3.474e+02          7.653e-02           2.269e+02           1.384e+01           
 ------------------------------------------------------------------------------------------------
 -------------------------------------------
 STEP OF MOLECULAR DYNAMICS : 8
 -------------------------------------------
 DONE(1.006e+04  SEC) : INIT SCF
 ITER   ETOT(eV)       EDIFF(eV)      DRHO       TIME(s)    
 GE1    -9.453227e+03  0.000000e+00   3.721e-03  1.047e+02  
 GE2    -9.453229e+03  -1.713645e-03  2.159e-03  9.889e+01  
 GE3    -9.453240e+03  -1.114283e-02  1.714e-03  9.885e+01  
 GE4    -9.453248e+03  -8.207351e-03  4.466e-04  9.886e+01  
 GE5    -9.453249e+03  -3.754222e-04  2.281e-04  9.897e+01  
 GE6    -9.453249e+03  -1.663657e-04  1.300e-04  9.897e+01  
 GE7    -9.453249e+03  -5.117528e-05  4.247e-05  9.888e+01  
 GE8    -9.453249e+03  -7.978660e-06  1.835e-05  9.886e+01  
 GE9    -9.453249e+03  -1.309088e-06  5.470e-06  9.887e+01  
 GE10   -9.453249e+03  -8.320022e-08  1.635e-06  9.901e+01  
 GE11   -9.453249e+03  -1.808196e-09  8.931e-07  9.886e+01  
 ><><><><><><><><><><><><><><><><><><><><><><
 TOTAL-STRESS (KBAR):
 ><><><><><><><><><><><><><><><><><><><><><><
 9.415e+01      -2.015e+01     -9.107e+00     
 -2.015e+01     -1.109e+01     -1.891e+01     
 -9.107e+00     -1.891e+01     -5.143e+01     
 TOTAL-PRESSURE: 1.054e+01 KBAR
 ------------------------------------------------------------------------------------------------
 Energy              Potential           Kinetic             Temperature         Pressure (KBAR)     
 -3.473e+02          -3.474e+02          7.398e-02           2.194e+02           1.337e+01           
 ------------------------------------------------------------------------------------------------
 -------------------------------------------
 STEP OF MOLECULAR DYNAMICS : 9
 -------------------------------------------
 DONE(1.125e+04  SEC) : INIT SCF
 ITER   ETOT(eV)       EDIFF(eV)      DRHO       TIME(s)    
 GE1    -9.453216e+03  0.000000e+00   3.532e-03  1.049e+02  
 GE2    -9.453214e+03  2.118169e-03   2.166e-03  9.905e+01  
 GE3    -9.453227e+03  -1.299152e-02  1.846e-03  9.916e+01  
 GE4    -9.453236e+03  -8.812634e-03  3.850e-04  9.891e+01  
 GE5    -9.453236e+03  -2.346944e-04  2.201e-04  9.896e+01  
 GE6    -9.453236e+03  -1.491743e-04  1.319e-04  9.901e+01  
 GE7    -9.453236e+03  -5.769747e-05  5.133e-05  9.904e+01  
 GE8    -9.453236e+03  -1.032079e-05  1.471e-05  9.889e+01  
 GE9    -9.453236e+03  -7.196636e-07  4.968e-06  9.897e+01  
 GE10   -9.453236e+03  -6.958539e-08  1.628e-06  9.907e+01  
 GE11   -9.453236e+03  -1.891723e-09  9.824e-07  9.918e+01  
 ><><><><><><><><><><><><><><><><><><><><><><
 TOTAL-STRESS (KBAR):
 ><><><><><><><><><><><><><><><><><><><><><><
 9.381e+01      -2.095e+01     -9.676e+00     
 -2.095e+01     -1.116e+01     -1.867e+01     
 -9.676e+00     -1.867e+01     -5.054e+01     
 TOTAL-PRESSURE: 1.070e+01 KBAR
 ------------------------------------------------------------------------------------------------
 Energy              Potential           Kinetic             Temperature         Pressure (KBAR)     
 -3.473e+02          -3.474e+02          7.793e-02           2.311e+02           1.368e+01           
 ------------------------------------------------------------------------------------------------
 -------------------------------------------
 STEP OF MOLECULAR DYNAMICS : 10
 -------------------------------------------
 DONE(1.244e+04  SEC) : INIT SCF
 ITER   ETOT(eV)       EDIFF(eV)      DRHO       TIME(s)    
 GE1    -9.453224e+03  0.000000e+00   3.575e-03  1.047e+02  
 GE2    -9.453222e+03  2.437530e-03   2.054e-03  9.869e+01  
 GE3    -9.453232e+03  -1.034446e-02  1.830e-03  9.872e+01  
 GE4    -9.453242e+03  -9.919357e-03  5.076e-04  9.887e+01  
 GE5    -9.453243e+03  -7.284649e-04  4.105e-04  9.883e+01  
 GE6    -9.453244e+03  -6.241832e-04  1.317e-04  9.872e+01  
 GE7    -9.453244e+03  -5.353670e-05  5.165e-05  9.866e+01  
 GE8    -9.453244e+03  -8.874962e-06  1.052e-05  9.882e+01  
 GE9    -9.453244e+03  -2.816842e-07  5.102e-06  9.880e+01  
 GE10   -9.453244e+03  -8.887230e-08  2.521e-06  9.875e+01  
 GE11   -9.453244e+03  -2.649495e-08  1.278e-06  9.884e+01  
 GE12   -9.453244e+03  -4.292339e-09  4.142e-07  9.873e+01  
 ><><><><><><><><><><><><><><><><><><><><><><
 TOTAL-STRESS (KBAR):
 ><><><><><><><><><><><><><><><><><><><><><><
 9.148e+01      -2.220e+01     -9.065e+00     
 -2.220e+01     -1.004e+01     -1.906e+01     
 -9.065e+00     -1.906e+01     -4.964e+01     
 TOTAL-PRESSURE: 1.060e+01 KBAR
 ------------------------------------------------------------------------------------------------
 Energy              Potential           Kinetic             Temperature         Pressure (KBAR)     
 -3.473e+02          -3.474e+02          1.042e-01           3.091e+02           1.459e+01           
 ------------------------------------------------------------------------------------------------

  |CLASS_NAME---------|NAME---------------|TIME(Sec)-----|CALLS----|AVG------|PER%-------
                       total               13731          27        5.1e+02   1e+02     %
   Driver              driver_line         13731          1         1.4e+04   1e+02     %
   PW_Basis            setup_struc_factor  1.2144         11        0.11      0.0088    %
   ORB_control         read_orb_first      0.233          1         0.23      0.0017    %
   LCAO_Orbitals       Read_Orbitals       0.233          1         0.23      0.0017    %
   NOrbital_Lm         extra_uniform       0.12643        16        0.0079    0.00092   %
   Mathzone_Add1       Uni_Deriv_Phi       0.11131        16        0.007     0.00081   %
   ORB_control         set_orb_tables      6.968          1         7         0.051     %
   ORB_gen_tables      gen_tables          6.968          1         7         0.051     %
   ORB_table_phi       init_Table          5.1413         1         5.1       0.037     %
   ORB_table_phi       cal_ST_Phi12_R      5.0997         558       0.0091    0.037     %
   ORB_table_beta      init_Table_Beta     1.3369         1         1.3       0.0097    %
   ORB_table_beta      VNL_PhiBeta_R       1.3281         168       0.0079    0.0097    %
   ppcell_vl           init_vloc           0.26277        1         0.26      0.0019    %
   Run_MD              md_line             13724          1         1.4e+04   1e+02     %
   Langevin            setup               1902.4         1         1.9e+03   14        %
   MD_func             force_stress        13723          11        1.2e+03   1e+02     %
   ESolver_KS_LCAO     Run                 12667          11        1.2e+03   92        %
   ESolver_KS_LCAO     beforescf           26.509         11        2.4       0.19      %
   ESolver_KS_LCAO     beforesolver        10.49          11        0.95      0.076     %
   ESolver_KS_LCAO     set_matrix_grid     6.0908         11        0.55      0.044     %
   atom_arrange        search              0.10291        11        0.0094    0.00075   %
   Grid_Technique      init                3.2016         11        0.29      0.023     %
   Grid_BigCell        grid_expansion_index0.98048        22        0.045     0.0071    %
   Record_adj          for_2d              2.4594         11        0.22      0.018     %
   Grid_Driver         Find_atom           16.651         688536    2.4e-05   0.12      %
   Charge              atomic_rho          13.925         21        0.66      0.1       %
   PW_Basis            recip2real          2.0995         755       0.0028    0.015     %
   PW_Basis            gathers_scatterp    1.0382         755       0.0014    0.0076    %
   Potential           init_pot            0.8894         11        0.081     0.0065    %
   Potential           update_from_charge  10.127         138       0.073     0.074     %
   Potential           cal_v_eff           10.08          138       0.073     0.073     %
   H_Hartree_pw        v_hartree           1.0537         138       0.0076    0.0077    %
   PW_Basis            real2recip          2.9185         1148      0.0025    0.021     %
   PW_Basis            gatherp_scatters    1.1829         1148      0.001     0.0086    %
   PotXC               cal_v_eff           8.9333         138       0.065     0.065     %
   XC_Functional       v_xc                8.871          138       0.064     0.065     %
   HSolverLCAO         solve               12618          127       99        92        %
   HamiltLCAO          updateHk            4547.3         4572      0.99      33        %
   OperatorLCAO        init                3828.1         9144      0.42      28        %
   Veff                contributeHk        3825.6         4572      0.84      28        %
   Gint_interface      cal_gint            6143.4         265       23        45        %
   Gint_interface      cal_gint_vlocal     2957.3         127       23        22        %
   Gint_k              folding_vl_k        868.25         4572      0.19      6.3       %
   Gint_k              Distri              614.8          4572      0.13      4.5       %
   Overlap             contributeHR        4.7972         11        0.44      0.035     %
   LCAO_gen_fixedH     calculate_S_no      4.7971         11        0.44      0.035     %
   Ekinetic<OperatorLCAO>contributeHR        4.9421         11        0.45      0.036     %
   Nonlocal<OperatorLCAO>contributeHR        50.751         11        4.6       0.37      %
   LCAO_gen_fixedH     build_Nonlocal_mu_new160.37         22        7.3       1.2       %
   ORB_gen_tables      snap_psibeta_half   3.4825         1247814   2.8e-06   0.025     %
   OperatorLCAO        folding_fixed       658.66         4572      0.14      4.8       %
   LCAO_nnr            folding_fixedH      650.58         4572      0.14      4.7       %
   HSolverLCAO         hamiltSolvePsiK     1941.4         4572      0.42      14        %
   DiagoElpa           elpa_solve          1926.8         4572      0.42      14        %
   ElecStateLCAO       psiToRho            6129           127       48        45        %
   elecstate           cal_dm              158.37         138       1.1       1.2       %
   psiMulPsiMpi        pdgemm              153.07         4968      0.031     1.1       %
    Local_Orbital_wfc  wfc_2d_to_grid      28.186         4572      0.0062    0.21      %
   LCAO_Charge         cal_dk_k            3333.9         127       26        24        %
   Record_adj          for_grid            0.69252        127       0.0055    0.005     %
   Gint_interface      cal_gint_rho        2628.9         127       21        19        %
   Charge              mix_rho             1.5286         116       0.013     0.011     %
   Force_Stress_LCAO   getForceStress      1056.6         11        96        7.7       %
   Forces              cal_force_loc       0.92314        11        0.084     0.0067    %
   Forces              cal_force_ew        0.91009        11        0.083     0.0066    %
   Forces              cal_force_scc       7.8712         11        0.72      0.057     %
   Stress_Func         stress_loc          6.7557         11        0.61      0.049     %
   Stress_Func         stress_ewa          0.41039        11        0.037     0.003     %
   Stress_Func         stress_gga          0.43026        11        0.039     0.0031    %
   Force_LCAO_k        ftable_k            1039.2         11        94        7.6       %
   Force_LCAO_k        allocate_k          142.14         11        13        1         %
   Force_LCAO_k        cal_foverlap_k      27.745         11        2.5       0.2       %
   Force_LCAO_k        cal_edm_2d          26.745         11        2.4       0.19      %
   Local_Orbital_Chargecal_dm_R            12.379         22        0.56      0.09      %
   Force_LCAO_k        cal_ftvnl_dphi_k    0.31606        11        0.029     0.0023    %
   Force_LCAO_k        cal_fvl_dphi_k      557.21         11        51        4.1       %
   Gint_interface      cal_gint_force      557.21         11        51        4.1       %
   Force_LCAO_k        cal_fvnl_dbeta_k_new289.85         11        26        2.1       %
 ----------------------------------------------------------------------------------------

 START  Time  : Mon May 22 14:16:30 2023
 FINISH Time  : Mon May 22 18:05:22 2023
 TOTAL  Time  : 1.4e+04
 SEE INFORMATION IN : OUT.ABACUS/
