WARNING: Total thread number on this node mismatches with hardware availability. This may cause poor performance.
Info: Local MPI proc number: 16,OpenMP thread number: 1,Total thread number: 16,Local thread limit: 32
 *********************************************************
 *                                                       *
 *                  WELCOME TO ABACUS v3.0               *
 *                                                       *
 *            'Atomic-orbital Based Ab-initio            *
 *                  Computation at UStc'                 *
 *                                                       *
 *          Website: http://abacus.ustc.edu.cn/          *
 *                                                       *
 *********************************************************
 Mon May 22 14:16:29 2023
 MAKE THE DIR         : OUT.ABACUS/
 MAKE THE STRU DIR    : OUT.ABACUS/STRU/
 UNIFORM GRID DIM     : 120 * 120 * 120
 UNIFORM GRID DIM(BIG): 60 * 60 * 60
 DONE(0.112726   SEC) : SETUP UNITCELL
 DONE(0.12272    SEC) : INIT K-POINTS
 ---------------------------------------------------------
 Molecular Dynamics simulations
 ---------------------------------------------------------
 ENSEMBLE                 : Langevin
 Time interval(fs)        : 1
 ---------------------------------------------------------
 SPIN    KPOINTS         PROCESSORS  NBASE       
 1       36              16          1584        
 ---------------------------------------------------------
 Use Systematically Improvable Atomic bases
 ---------------------------------------------------------
 ELEMENT ORBITALS        NBASE       NATOM       XC          
 Si      3s3p2d-9au      22          36          
 C       3s3p2d-9au      22          36          
 ---------------------------------------------------------
 Initial plane wave basis and FFT box
 ---------------------------------------------------------
--------------------------------- INITVEL DONE ------------------------------------
 -------------------------------------------
 STEP OF MOLECULAR DYNAMICS : 0
 -------------------------------------------
 START CHARGE      : atomic
 DONE(10.3261    SEC) : INIT SCF
 ITER   ETOT(eV)       EDIFF(eV)      DRHO       TIME(s)    
 GE1    -9.367069e+03  0.000000e+00   2.819e-01  1.191e+02  
 GE2    -9.424986e+03  -5.791681e+01  1.430e-01  1.124e+02  
 GE3    -9.434341e+03  -9.355164e+00  3.423e-02  1.123e+02  
 GE4    -9.424761e+03  9.579923e+00   6.490e-02  1.124e+02  
 GE5    -9.444220e+03  -1.945901e+01  1.271e-02  1.125e+02  
 GE6    -9.444676e+03  -4.557559e-01  5.550e-03  1.121e+02  
 GE7    -9.444720e+03  -4.341915e-02  2.262e-03  1.120e+02  
 GE8    -9.444732e+03  -1.209043e-02  1.827e-03  1.123e+02  
 GE9    -9.444728e+03  3.913040e-03   9.773e-04  1.121e+02  
 GE10   -9.444730e+03  -2.458626e-03  2.815e-04  1.122e+02  
 GE11   -9.444730e+03  -2.375795e-04  1.659e-04  1.122e+02  
 GE12   -9.444731e+03  -5.975557e-05  6.631e-05  1.121e+02  
 GE13   -9.444731e+03  -9.041364e-06  2.156e-05  1.123e+02  
 GE14   -9.444731e+03  -9.019573e-07  8.940e-06  1.120e+02  
 GE15   -9.444731e+03  -1.204191e-07  1.001e-05  1.121e+02  
 GE16   -9.444731e+03  -3.665920e-07  2.540e-06  1.121e+02  
 GE17   -9.444731e+03  -1.840060e-08  1.298e-06  1.121e+02  
 GE18   -9.444731e+03  5.679808e-09   9.961e-07  1.121e+02  
 ><><><><><><><><><><><><><><><><><><><><><><
 TOTAL-STRESS (KBAR):
 ><><><><><><><><><><><><><><><><><><><><><><
 2.547e+02      8.385e+01      2.890e+00      
 8.385e+01      2.199e+02      -3.823e+01     
 2.890e+00      -3.823e+01     2.639e+02      
 TOTAL-PRESSURE: 2.461e+02 KBAR
 ------------------------------------------------------------------------------------------------
 Energy              Potential           Kinetic             Temperature         Pressure (KBAR)     
 -3.471e+02          -3.471e+02          3.373e-03           1.000e+01           2.463e+02           
 ------------------------------------------------------------------------------------------------
 -------------------------------------------
 STEP OF MOLECULAR DYNAMICS : 1
 -------------------------------------------
 DONE(2.149e+03  SEC) : INIT SCF
 ITER   ETOT(eV)       EDIFF(eV)      DRHO       TIME(s)    
 GE1    -9.444951e+03  0.000000e+00   7.001e-04  1.177e+02  
 GE2    -9.444950e+03  1.305550e-03   6.158e-04  1.114e+02  
 GE3    -9.444952e+03  -1.623895e-03  5.579e-04  1.113e+02  
 GE4    -9.444953e+03  -1.057920e-03  1.175e-04  1.113e+02  
 GE5    -9.444953e+03  -3.019583e-05  6.455e-05  1.115e+02  
 GE6    -9.444953e+03  -1.731300e-05  2.932e-05  1.115e+02  
 GE7    -9.444953e+03  -2.728740e-06  1.052e-05  1.116e+02  
 GE8    -9.444953e+03  -3.288349e-07  3.606e-06  1.115e+02  
 GE9    -9.444953e+03  -5.563799e-08  2.036e-06  1.113e+02  
 GE10   -9.444953e+03  -1.368908e-08  5.710e-07  1.116e+02  
 ><><><><><><><><><><><><><><><><><><><><><><
 TOTAL-STRESS (KBAR):
 ><><><><><><><><><><><><><><><><><><><><><><
 2.537e+02      8.282e+01      2.749e+00      
 8.282e+01      2.192e+02      -3.843e+01     
 2.749e+00      -3.843e+01     2.624e+02      
 TOTAL-PRESSURE: 2.451e+02 KBAR
 ------------------------------------------------------------------------------------------------
 Energy              Potential           Kinetic             Temperature         Pressure (KBAR)     
 -3.471e+02          -3.471e+02          9.511e-03           2.820e+01           2.455e+02           
 ------------------------------------------------------------------------------------------------
 -------------------------------------------
 STEP OF MOLECULAR DYNAMICS : 2
 -------------------------------------------
 DONE(3.381e+03  SEC) : INIT SCF
 ITER   ETOT(eV)       EDIFF(eV)      DRHO       TIME(s)    
 GE1    -9.445176e+03  0.000000e+00   1.631e-03  1.176e+02  
 GE2    -9.445176e+03  -7.510222e-04  9.011e-04  1.114e+02  
 GE3    -9.445178e+03  -1.944598e-03  7.061e-04  1.115e+02  
 GE4    -9.445180e+03  -1.456590e-03  1.895e-04  1.113e+02  
 GE5    -9.445180e+03  -9.222101e-05  1.458e-04  1.112e+02  
 GE6    -9.445180e+03  -9.067050e-05  5.634e-05  1.112e+02  
 GE7    -9.445180e+03  -1.143801e-05  2.141e-05  1.114e+02  
 GE8    -9.445180e+03  -1.738094e-06  5.447e-06  1.113e+02  
 GE9    -9.445180e+03  -9.703315e-08  2.193e-06  1.114e+02  
 GE10   -9.445180e+03  -1.693424e-08  1.094e-06  1.115e+02  
 GE11   -9.445180e+03  -3.336423e-09  4.541e-07  1.112e+02  
 ><><><><><><><><><><><><><><><><><><><><><><
 TOTAL-STRESS (KBAR):
 ><><><><><><><><><><><><><><><><><><><><><><
 2.526e+02      8.169e+01      2.227e+00      
 8.169e+01      2.185e+02      -3.889e+01     
 2.227e+00      -3.889e+01     2.610e+02      
 TOTAL-PRESSURE: 2.441e+02 KBAR
 ------------------------------------------------------------------------------------------------
 Energy              Potential           Kinetic             Temperature         Pressure (KBAR)     
 -3.471e+02          -3.471e+02          2.309e-02           6.847e+01           2.450e+02           
 ------------------------------------------------------------------------------------------------
 -------------------------------------------
 STEP OF MOLECULAR DYNAMICS : 3
 -------------------------------------------
 DONE(4.724e+03  SEC) : INIT SCF
 ITER   ETOT(eV)       EDIFF(eV)      DRHO       TIME(s)    
 GE1    -9.445494e+03  0.000000e+00   2.125e-03  1.179e+02  
 GE2    -9.445490e+03  4.376771e-03   1.416e-03  1.113e+02  
 GE3    -9.445495e+03  -5.292469e-03  1.407e-03  1.114e+02  
 GE4    -9.445502e+03  -7.071826e-03  3.374e-04  1.114e+02  
 GE5    -9.445502e+03  -3.631218e-04  1.745e-04  1.114e+02  
 GE6    -9.445502e+03  -1.075699e-04  7.199e-05  1.115e+02  
 GE7    -9.445502e+03  -1.734860e-05  3.335e-05  1.114e+02  
 GE8    -9.445502e+03  -3.830842e-06  8.222e-06  1.115e+02  
 GE9    -9.445502e+03  -2.536857e-07  4.514e-06  1.116e+02  
 GE10   -9.445502e+03  -8.209581e-08  1.637e-06  1.114e+02  
 GE11   -9.445502e+03  -9.362712e-09  4.708e-07  1.114e+02  
 ><><><><><><><><><><><><><><><><><><><><><><
 TOTAL-STRESS (KBAR):
 ><><><><><><><><><><><><><><><><><><><><><><
 2.533e+02      8.123e+01      1.602e+00      
 8.123e+01      2.166e+02      -3.861e+01     
 1.602e+00      -3.861e+01     2.575e+02      
 TOTAL-PRESSURE: 2.425e+02 KBAR
 ------------------------------------------------------------------------------------------------
 Energy              Potential           Kinetic             Temperature         Pressure (KBAR)     
 -3.471e+02          -3.471e+02          2.684e-02           7.958e+01           2.436e+02           
 ------------------------------------------------------------------------------------------------
 -------------------------------------------
 STEP OF MOLECULAR DYNAMICS : 4
 -------------------------------------------
 DONE(6.067e+03  SEC) : INIT SCF
 ITER   ETOT(eV)       EDIFF(eV)      DRHO       TIME(s)    
 GE1    -9.445616e+03  0.000000e+00   2.558e-03  1.178e+02  
 GE2    -9.445614e+03  2.265047e-03   1.522e-03  1.114e+02  
 GE3    -9.445619e+03  -5.397708e-03  1.421e-03  1.115e+02  
 GE4    -9.445626e+03  -7.135213e-03  3.779e-04  1.116e+02  
 GE5    -9.445627e+03  -4.571674e-04  2.332e-04  1.114e+02  
 GE6    -9.445627e+03  -2.138872e-04  8.605e-05  1.113e+02  
 GE7    -9.445627e+03  -2.636999e-05  3.827e-05  1.114e+02  
 GE8    -9.445627e+03  -4.969956e-06  7.111e-06  1.113e+02  
 GE9    -9.445627e+03  -1.344144e-07  4.551e-06  1.114e+02  
 GE10   -9.445627e+03  -8.637114e-08  1.895e-06  1.114e+02  
 GE11   -9.445627e+03  -1.172002e-08  5.454e-07  1.112e+02  
 ><><><><><><><><><><><><><><><><><><><><><><
 TOTAL-STRESS (KBAR):
 ><><><><><><><><><><><><><><><><><><><><><><
 2.521e+02      8.071e+01      1.943e+00      
 8.071e+01      2.177e+02      -3.871e+01     
 1.943e+00      -3.871e+01     2.558e+02      
 TOTAL-PRESSURE: 2.419e+02 KBAR
 ------------------------------------------------------------------------------------------------
 Energy              Potential           Kinetic             Temperature         Pressure (KBAR)     
 -3.471e+02          -3.471e+02          3.947e-02           1.170e+02           2.435e+02           
 ------------------------------------------------------------------------------------------------
 -------------------------------------------
 STEP OF MOLECULAR DYNAMICS : 5
 -------------------------------------------
 DONE(7.410e+03  SEC) : INIT SCF
 ITER   ETOT(eV)       EDIFF(eV)      DRHO       TIME(s)    
 GE1    -9.445789e+03  0.000000e+00   2.928e-03  1.184e+02  
 GE2    -9.445783e+03  6.780912e-03   1.940e-03  1.115e+02  
 GE3    -9.445794e+03  -1.181087e-02  1.815e-03  1.115e+02  
 GE4    -9.445805e+03  -1.033888e-02  3.858e-04  1.116e+02  
 GE5    -9.445805e+03  -3.240490e-04  2.886e-04  1.115e+02  
 GE6    -9.445805e+03  -3.574209e-04  1.213e-04  1.117e+02  
 GE7    -9.445805e+03  -5.072083e-05  4.034e-05  1.115e+02  
 GE8    -9.445805e+03  -5.458389e-06  6.593e-06  1.116e+02  
 GE9    -9.445805e+03  -1.151306e-07  3.718e-06  1.116e+02  
 GE10   -9.445805e+03  -4.516469e-08  1.575e-06  1.115e+02  
 GE11   -9.445805e+03  -5.081201e-09  7.481e-07  1.114e+02  
 ><><><><><><><><><><><><><><><><><><><><><><
 TOTAL-STRESS (KBAR):
 ><><><><><><><><><><><><><><><><><><><><><><
 2.524e+02      8.044e+01      1.911e+00      
 8.044e+01      2.150e+02      -3.887e+01     
 1.911e+00      -3.887e+01     2.560e+02      
 TOTAL-PRESSURE: 2.411e+02 KBAR
 ------------------------------------------------------------------------------------------------
 Energy              Potential           Kinetic             Temperature         Pressure (KBAR)     
 -3.471e+02          -3.471e+02          4.988e-02           1.479e+02           2.432e+02           
 ------------------------------------------------------------------------------------------------
 -------------------------------------------
 STEP OF MOLECULAR DYNAMICS : 6
 -------------------------------------------
 DONE(8.755e+03  SEC) : INIT SCF
 ITER   ETOT(eV)       EDIFF(eV)      DRHO       TIME(s)    
 GE1    -9.446150e+03  0.000000e+00   3.151e-03  1.181e+02  
 GE2    -9.446149e+03  3.273825e-04   1.925e-03  1.116e+02  
 GE3    -9.446159e+03  -9.272784e-03  1.581e-03  1.114e+02  
 GE4    -9.446166e+03  -7.599439e-03  4.326e-04  1.115e+02  
 GE5    -9.446167e+03  -5.307917e-04  2.587e-04  1.116e+02  
 GE6    -9.446167e+03  -2.867117e-04  1.157e-04  1.116e+02  
 GE7    -9.446167e+03  -4.956242e-05  4.507e-05  1.116e+02  
 GE8    -9.446167e+03  -7.356255e-06  1.036e-05  1.115e+02  
 GE9    -9.446167e+03  -3.430901e-07  4.735e-06  1.117e+02  
 GE10   -9.446167e+03  -6.663566e-08  1.950e-06  1.117e+02  
 GE11   -9.446167e+03  -1.916317e-08  1.105e-06  1.117e+02  
 GE12   -9.446167e+03  -3.854598e-09  2.547e-07  1.117e+02  
 ><><><><><><><><><><><><><><><><><><><><><><
 TOTAL-STRESS (KBAR):
 ><><><><><><><><><><><><><><><><><><><><><><
 2.503e+02      7.897e+01      2.733e+00      
 7.897e+01      2.147e+02      -3.902e+01     
 2.733e+00      -3.902e+01     2.533e+02      
 TOTAL-PRESSURE: 2.394e+02 KBAR
 ------------------------------------------------------------------------------------------------
 Energy              Potential           Kinetic             Temperature         Pressure (KBAR)     
 -3.471e+02          -3.471e+02          7.011e-02           2.079e+02           2.424e+02           
 ------------------------------------------------------------------------------------------------
 -------------------------------------------
 STEP OF MOLECULAR DYNAMICS : 7
 -------------------------------------------
 DONE(1.021e+04  SEC) : INIT SCF
 ITER   ETOT(eV)       EDIFF(eV)      DRHO       TIME(s)    
 GE1    -9.446338e+03  0.000000e+00   3.697e-03  1.185e+02  
 GE2    -9.446327e+03  1.122993e-02   2.212e-03  1.119e+02  
 GE3    -9.446342e+03  -1.472167e-02  2.268e-03  1.118e+02  
 GE4    -9.446360e+03  -1.811045e-02  5.065e-04  1.119e+02  
 GE5    -9.446361e+03  -8.134994e-04  3.135e-04  1.119e+02  
 GE6    -9.446361e+03  -3.618235e-04  1.256e-04  1.118e+02  
 GE7    -9.446361e+03  -4.982484e-05  4.740e-05  1.118e+02  
 GE8    -9.446361e+03  -7.966460e-06  1.293e-05  1.120e+02  
 GE9    -9.446361e+03  -5.373869e-07  7.013e-06  1.118e+02  
 GE10   -9.446361e+03  -1.895420e-07  2.787e-06  1.119e+02  
 GE11   -9.446361e+03  -2.505024e-08  9.700e-07  1.118e+02  
 ><><><><><><><><><><><><><><><><><><><><><><
 TOTAL-STRESS (KBAR):
 ><><><><><><><><><><><><><><><><><><><><><><
 2.491e+02      8.006e+01      3.921e+00      
 8.006e+01      2.160e+02      -3.979e+01     
 3.921e+00      -3.979e+01     2.507e+02      
 TOTAL-PRESSURE: 2.386e+02 KBAR
 ------------------------------------------------------------------------------------------------
 Energy              Potential           Kinetic             Temperature         Pressure (KBAR)     
 -3.471e+02          -3.471e+02          7.873e-02           2.334e+02           2.419e+02           
 ------------------------------------------------------------------------------------------------
 -------------------------------------------
 STEP OF MOLECULAR DYNAMICS : 8
 -------------------------------------------
 DONE(1.156e+04  SEC) : INIT SCF
 ITER   ETOT(eV)       EDIFF(eV)      DRHO       TIME(s)    
 GE1    -9.446371e+03  0.000000e+00   4.040e-03  1.181e+02  
 GE2    -9.446367e+03  3.470977e-03   2.469e-03  1.114e+02  
 GE3    -9.446384e+03  -1.679619e-02  2.099e-03  1.114e+02  
 GE4    -9.446399e+03  -1.503989e-02  5.220e-04  1.114e+02  
 GE5    -9.446400e+03  -7.328221e-04  3.192e-04  1.113e+02  
 GE6    -9.446400e+03  -4.392288e-04  1.432e-04  1.114e+02  
 GE7    -9.446400e+03  -7.674495e-05  5.761e-05  1.114e+02  
 GE8    -9.446400e+03  -1.257278e-05  1.140e-05  1.114e+02  
 GE9    -9.446400e+03  -3.802718e-07  5.462e-06  1.114e+02  
 GE10   -9.446400e+03  -1.054369e-07  2.877e-06  1.114e+02  
 GE11   -9.446400e+03  -3.720027e-08  1.085e-06  1.114e+02  
 GE12   -9.446400e+03  -2.629541e-09  4.595e-07  1.113e+02  
 ><><><><><><><><><><><><><><><><><><><><><><
 TOTAL-STRESS (KBAR):
 ><><><><><><><><><><><><><><><><><><><><><><
 2.458e+02      7.905e+01      4.035e+00      
 7.905e+01      2.161e+02      -4.108e+01     
 4.035e+00      -4.108e+01     2.523e+02      
 TOTAL-PRESSURE: 2.381e+02 KBAR
 ------------------------------------------------------------------------------------------------
 Energy              Potential           Kinetic             Temperature         Pressure (KBAR)     
 -3.471e+02          -3.471e+02          7.543e-02           2.236e+02           2.412e+02           
 ------------------------------------------------------------------------------------------------
 -------------------------------------------
 STEP OF MOLECULAR DYNAMICS : 9
 -------------------------------------------
 DONE(1.301e+04  SEC) : INIT SCF
 ITER   ETOT(eV)       EDIFF(eV)      DRHO       TIME(s)    
 GE1    -9.446590e+03  0.000000e+00   3.986e-03  1.183e+02  
 GE2    -9.446582e+03  8.275334e-03   2.638e-03  1.115e+02  
 GE3    -9.446603e+03  -2.148140e-02  2.308e-03  1.116e+02  
 GE4    -9.446619e+03  -1.577805e-02  5.026e-04  1.116e+02  
 GE5    -9.446619e+03  -6.072167e-04  3.210e-04  1.115e+02  
 GE6    -9.446620e+03  -4.394877e-04  1.540e-04  1.116e+02  
 GE7    -9.446620e+03  -9.295091e-05  5.927e-05  1.116e+02  
 GE8    -9.446620e+03  -1.206581e-05  1.192e-05  1.115e+02  
 GE9    -9.446620e+03  -4.096577e-07  6.381e-06  1.116e+02  
 GE10   -9.446620e+03  -1.335111e-07  2.611e-06  1.116e+02  
 GE11   -9.446620e+03  -3.016547e-08  1.204e-06  1.115e+02  
 GE12   -9.446620e+03  -3.438511e-09  4.574e-07  1.114e+02  
 ><><><><><><><><><><><><><><><><><><><><><><
 TOTAL-STRESS (KBAR):
 ><><><><><><><><><><><><><><><><><><><><><><
 2.443e+02      7.708e+01      3.070e+00      
 7.708e+01      2.151e+02      -4.073e+01     
 3.070e+00      -4.073e+01     2.510e+02      
 TOTAL-PRESSURE: 2.368e+02 KBAR
 ------------------------------------------------------------------------------------------------
 Energy              Potential           Kinetic             Temperature         Pressure (KBAR)     
 -3.471e+02          -3.472e+02          8.380e-02           2.485e+02           2.403e+02           
 ------------------------------------------------------------------------------------------------
 -------------------------------------------
 STEP OF MOLECULAR DYNAMICS : 10
 -------------------------------------------
 DONE(1.447e+04  SEC) : INIT SCF
 ITER   ETOT(eV)       EDIFF(eV)      DRHO       TIME(s)    
 GE1    -9.446855e+03  0.000000e+00   3.950e-03  1.182e+02  
 GE2    -9.446847e+03  7.971279e-03   2.445e-03  1.115e+02  
 GE3    -9.446866e+03  -1.843535e-02  2.203e-03  1.114e+02  
 GE4    -9.446882e+03  -1.637752e-02  5.890e-04  1.115e+02  
 GE5    -9.446883e+03  -1.131021e-03  3.933e-04  1.115e+02  
 GE6    -9.446884e+03  -5.948785e-04  1.373e-04  1.114e+02  
 GE7    -9.446884e+03  -6.147570e-05  5.921e-05  1.115e+02  
 GE8    -9.446884e+03  -1.212734e-05  1.213e-05  1.114e+02  
 GE9    -9.446884e+03  -4.354257e-07  7.919e-06  1.114e+02  
 GE10   -9.446884e+03  -2.739564e-07  3.273e-06  1.115e+02  
 GE11   -9.446884e+03  -3.634799e-08  8.923e-07  1.114e+02  
 ><><><><><><><><><><><><><><><><><><><><><><
 TOTAL-STRESS (KBAR):
 ><><><><><><><><><><><><><><><><><><><><><><
 2.397e+02      7.395e+01      3.778e+00      
 7.395e+01      2.160e+02      -4.166e+01     
 3.778e+00      -4.166e+01     2.506e+02      
 TOTAL-PRESSURE: 2.354e+02 KBAR
 ------------------------------------------------------------------------------------------------
 Energy              Potential           Kinetic             Temperature         Pressure (KBAR)     
 -3.471e+02          -3.472e+02          1.087e-01           3.222e+02           2.399e+02           
 ------------------------------------------------------------------------------------------------

  |CLASS_NAME---------|NAME---------------|TIME(Sec)-----|CALLS----|AVG------|PER%-------
                       total               15812          27        5.9e+02   1e+02     %
   Driver              driver_line         15812          1         1.6e+04   1e+02     %
   PW_Basis            setup_struc_factor  1.1141         11        0.1       0.007     %
   ORB_control         read_orb_first      0.21718        1         0.22      0.0014    %
   LCAO_Orbitals       Read_Orbitals       0.21718        1         0.22      0.0014    %
   NOrbital_Lm         extra_uniform       0.11645        16        0.0073    0.00074   %
   Mathzone_Add1       Uni_Deriv_Phi       0.1021         16        0.0064    0.00065   %
   ORB_control         set_orb_tables      6.9959         1         7         0.044     %
   ORB_gen_tables      gen_tables          6.9959         1         7         0.044     %
   ORB_table_phi       init_Table          5.1722         1         5.2       0.033     %
   ORB_table_phi       cal_ST_Phi12_R      5.1282         558       0.0092    0.032     %
   ORB_table_beta      init_Table_Beta     1.3336         1         1.3       0.0084    %
   ORB_table_beta      VNL_PhiBeta_R       1.3264         168       0.0079    0.0084    %
   ppcell_vl           init_vloc           0.24456        1         0.24      0.0015    %
   Run_MD              md_line             15804          1         1.6e+04   1e+02     %
   Langevin            setup               2138.8         1         2.1e+03   14        %
   MD_func             force_stress        15804          11        1.4e+03   1e+02     %
   ESolver_KS_LCAO     Run                 14608          11        1.3e+03   92        %
   ESolver_KS_LCAO     beforescf           27.923         11        2.5       0.18      %
   ESolver_KS_LCAO     beforesolver        10.752         11        0.98      0.068     %
   ESolver_KS_LCAO     set_matrix_grid     6.4038         11        0.58      0.04      %
   atom_arrange        search              0.10413        11        0.0095    0.00066   %
   Grid_Technique      init                2.9692         11        0.27      0.019     %
   Grid_BigCell        grid_expansion_index0.94554        22        0.043     0.006     %
   Record_adj          for_2d              3.0148         11        0.27      0.019     %
   Grid_Driver         Find_atom           18.156         704520    2.6e-05   0.11      %
   Charge              atomic_rho          14.916         21        0.71      0.094     %
   PW_Basis            recip2real          1.9575         770       0.0025    0.012     %
   PW_Basis            gathers_scatterp    1.1421         770       0.0015    0.0072    %
   Potential           init_pot            0.85204        11        0.077     0.0054    %
   Potential           update_from_charge  10.52          141       0.075     0.067     %
   Potential           cal_v_eff           10.477         141       0.074     0.066     %
   H_Hartree_pw        v_hartree           0.95993        141       0.0068    0.0061    %
   PW_Basis            real2recip          3.6524         1172      0.0031    0.023     %
   PW_Basis            gatherp_scatters    2.2315         1172      0.0019    0.014     %
   PotXC               cal_v_eff           9.438          141       0.067     0.06      %
   XC_Functional       v_xc                9.3898         141       0.067     0.059     %
   HSolverLCAO         solve               14556          130       1.1e+02   92        %
   HamiltLCAO          updateHk            5394.9         4680      1.2       34        %
   OperatorLCAO        init                4531.3         9360      0.48      29        %
   Veff                contributeHk        4528.8         4680      0.97      29        %
   Gint_interface      cal_gint            6230.3         271       23        39        %
   Gint_interface      cal_gint_vlocal     3000.2         130       23        19        %
   Gint_k              folding_vl_k        1528.6         4680      0.33      9.7       %
   Gint_k              Distri              1260.1         4680      0.27      8         %
   Overlap             contributeHR        5.5156         11        0.5       0.035     %
   LCAO_gen_fixedH     calculate_S_no      5.5156         11        0.5       0.035     %
   Ekinetic<OperatorLCAO>contributeHR        5.6154         11        0.51      0.036     %
   Nonlocal<OperatorLCAO>contributeHR        54.07          11        4.9       0.34      %
   LCAO_gen_fixedH     build_Nonlocal_mu_new173.16         22        7.9       1.1       %
   ORB_gen_tables      snap_psibeta_half   3.6346         1315062   2.8e-06   0.023     %
   OperatorLCAO        folding_fixed       798.33         4680      0.17      5         %
   LCAO_nnr            folding_fixedH      790.22         4680      0.17      5         %
   HSolverLCAO         hamiltSolvePsiK     1964.8         4680      0.42      12        %
   DiagoElpa           elpa_solve          1946.3         4680      0.42      12        %
   ElecStateLCAO       psiToRho            7196.6         130       55        46        %
   elecstate           cal_dm              182.03         141       1.3       1.2       %
   psiMulPsiMpi        pdgemm              177.13         5076      0.035     1.1       %
    Local_Orbital_wfc  wfc_2d_to_grid      30.612         4680      0.0065    0.19      %
   LCAO_Charge         cal_dk_k            3508.2         130       27        22        %
   Record_adj          for_grid            0.77852        130       0.006     0.0049    %
   Gint_interface      cal_gint_rho        2614.2         130       20        17        %
   Charge              mix_rho             1.5078         119       0.013     0.0095    %
   Force_Stress_LCAO   getForceStress      1196.7         11        1.1e+02   7.6       %
   Forces              cal_force_loc       0.84174        11        0.077     0.0053    %
   Forces              cal_force_ew        0.83692        11        0.076     0.0053    %
   Forces              cal_force_scc       7.2675         11        0.66      0.046     %
   Stress_Func         stress_loc          6.1889         11        0.56      0.039     %
   Stress_Func         stress_ewa          0.38           11        0.035     0.0024    %
   Stress_Func         stress_gga          0.4187         11        0.038     0.0026    %
   Force_LCAO_k        ftable_k            1180.7         11        1.1e+02   7.5       %
   Force_LCAO_k        allocate_k          154.55         11        14        0.98      %
   Force_LCAO_k        cal_foverlap_k      33.421         11        3         0.21      %
   Force_LCAO_k        cal_edm_2d          32.389         11        2.9       0.2       %
   Local_Orbital_Chargecal_dm_R            12.734         22        0.58      0.081     %
   Force_LCAO_k        cal_ftvnl_dphi_k    0.32735        11        0.03      0.0021    %
   Force_LCAO_k        cal_fvl_dphi_k      615.89         11        56        3.9       %
   Gint_interface      cal_gint_force      615.89         11        56        3.9       %
   Force_LCAO_k        cal_fvnl_dbeta_k_new319.41         11        29        2         %
 ----------------------------------------------------------------------------------------

 START  Time  : Mon May 22 14:16:29 2023
 FINISH Time  : Mon May 22 18:40:02 2023
 TOTAL  Time  : 1.6e+04
 SEE INFORMATION IN : OUT.ABACUS/
