WARNING: Total thread number on this node mismatches with hardware availability. This may cause poor performance.
Info: Local MPI proc number: 16,OpenMP thread number: 1,Total thread number: 16,Local thread limit: 32
 *********************************************************
 *                                                       *
 *                  WELCOME TO ABACUS v3.0               *
 *                                                       *
 *            'Atomic-orbital Based Ab-initio            *
 *                  Computation at UStc'                 *
 *                                                       *
 *          Website: http://abacus.ustc.edu.cn/          *
 *                                                       *
 *********************************************************
 Mon May 22 14:16:29 2023
 MAKE THE DIR         : OUT.ABACUS/
 MAKE THE STRU DIR    : OUT.ABACUS/STRU/
 UNIFORM GRID DIM     : 120 * 120 * 128
 UNIFORM GRID DIM(BIG): 60 * 60 * 64
 DONE(0.0843378  SEC) : SETUP UNITCELL
 DONE(0.0915679  SEC) : INIT K-POINTS
 ---------------------------------------------------------
 Molecular Dynamics simulations
 ---------------------------------------------------------
 ENSEMBLE                 : Langevin
 Time interval(fs)        : 1
 ---------------------------------------------------------
 SPIN    KPOINTS         PROCESSORS  NBASE       
 1       36              16          1584        
 ---------------------------------------------------------
 Use Systematically Improvable Atomic bases
 ---------------------------------------------------------
 ELEMENT ORBITALS        NBASE       NATOM       XC          
 Si      3s3p2d-9au      22          36          
 C       3s3p2d-9au      22          36          
 ---------------------------------------------------------
 Initial plane wave basis and FFT box
 ---------------------------------------------------------
--------------------------------- INITVEL DONE ------------------------------------
 -------------------------------------------
 STEP OF MOLECULAR DYNAMICS : 0
 -------------------------------------------
 START CHARGE      : atomic
 DONE(8.58502    SEC) : INIT SCF
 ITER   ETOT(eV)       EDIFF(eV)      DRHO       TIME(s)    
 GE1    -9.384257e+03  0.000000e+00   2.749e-01  1.133e+02  
 GE2    -9.442651e+03  -5.839429e+01  1.443e-01  1.072e+02  
 GE3    -9.456347e+03  -1.369631e+01  2.257e-02  1.071e+02  
 GE4    -9.456371e+03  -2.342563e-02  1.067e-03  1.071e+02  
 GE5    -9.456371e+03  -4.288692e-04  2.366e-04  1.073e+02  
 GE6    -9.456371e+03  1.024113e-04   1.798e-04  1.076e+02  
 GE7    -9.456371e+03  -1.526818e-04  5.190e-05  1.073e+02  
 GE8    -9.456371e+03  -7.863939e-06  6.538e-06  1.070e+02  
 GE9    -9.456371e+03  -1.436889e-07  3.999e-06  1.073e+02  
 GE10   -9.456371e+03  -3.269757e-08  4.232e-07  1.074e+02  
 ><><><><><><><><><><><><><><><><><><><><><><
 TOTAL-STRESS (KBAR):
 ><><><><><><><><><><><><><><><><><><><><><><
 6.778e+01      -3.417e-06     -3.507e-10     
 -3.417e-06     6.778e+01      -1.407e-09     
 -3.507e-10     -1.407e-09     6.623e+01      
 TOTAL-PRESSURE: 6.727e+01 KBAR
 ------------------------------------------------------------------------------------------------
 Energy              Potential           Kinetic             Temperature         Pressure (KBAR)     
 -3.475e+02          -3.475e+02          3.373e-03           1.000e+01           6.740e+01           
 ------------------------------------------------------------------------------------------------
 -------------------------------------------
 STEP OF MOLECULAR DYNAMICS : 1
 -------------------------------------------
 DONE(1.193e+03  SEC) : INIT SCF
 ITER   ETOT(eV)       EDIFF(eV)      DRHO       TIME(s)    
 GE1    -9.456370e+03  0.000000e+00   4.250e-04  1.126e+02  
 GE2    -9.456370e+03  1.933234e-05   2.180e-04  1.065e+02  
 GE3    -9.456370e+03  -6.546157e-05  2.231e-04  1.066e+02  
 GE4    -9.456370e+03  -1.697052e-04  6.638e-05  1.064e+02  
 GE5    -9.456370e+03  -1.508045e-05  3.638e-05  1.064e+02  
 GE6    -9.456370e+03  -4.955868e-06  1.241e-05  1.065e+02  
 GE7    -9.456370e+03  -4.443135e-07  4.097e-06  1.062e+02  
 GE8    -9.456370e+03  -5.855833e-08  1.386e-06  1.067e+02  
 GE9    -9.456370e+03  -4.793498e-09  4.781e-07  1.065e+02  
 ><><><><><><><><><><><><><><><><><><><><><><
 TOTAL-STRESS (KBAR):
 ><><><><><><><><><><><><><><><><><><><><><><
 6.785e+01      6.977e-02      -8.359e-02     
 6.977e-02      6.768e+01      -1.357e-02     
 -8.359e-02     -1.357e-02     6.627e+01      
 TOTAL-PRESSURE: 6.727e+01 KBAR
 ------------------------------------------------------------------------------------------------
 Energy              Potential           Kinetic             Temperature         Pressure (KBAR)     
 -3.475e+02          -3.475e+02          7.110e-03           2.108e+01           6.755e+01           
 ------------------------------------------------------------------------------------------------
 -------------------------------------------
 STEP OF MOLECULAR DYNAMICS : 2
 -------------------------------------------
 DONE(2.263e+03  SEC) : INIT SCF
 ITER   ETOT(eV)       EDIFF(eV)      DRHO       TIME(s)    
 GE1    -9.456357e+03  0.000000e+00   1.610e-03  1.130e+02  
 GE2    -9.456356e+03  5.308547e-04   1.017e-03  1.067e+02  
 GE3    -9.456359e+03  -2.798696e-03  8.552e-04  1.069e+02  
 GE4    -9.456361e+03  -2.073363e-03  2.126e-04  1.071e+02  
 GE5    -9.456361e+03  -1.204568e-04  1.515e-04  1.069e+02  
 GE6    -9.456361e+03  -8.838372e-05  5.867e-05  1.069e+02  
 GE7    -9.456361e+03  -1.145012e-05  2.468e-05  1.072e+02  
 GE8    -9.456361e+03  -2.057224e-06  4.732e-06  1.071e+02  
 GE9    -9.456361e+03  -6.618864e-08  1.645e-06  1.069e+02  
 GE10   -9.456361e+03  -5.370451e-09  3.582e-07  1.070e+02  
 ><><><><><><><><><><><><><><><><><><><><><><
 TOTAL-STRESS (KBAR):
 ><><><><><><><><><><><><><><><><><><><><><><
 6.784e+01      6.222e-01      -5.461e-01     
 6.222e-01      6.742e+01      -2.506e-01     
 -5.461e-01     -2.506e-01     6.663e+01      
 TOTAL-PRESSURE: 6.729e+01 KBAR
 ------------------------------------------------------------------------------------------------
 Energy              Potential           Kinetic             Temperature         Pressure (KBAR)     
 -3.475e+02          -3.475e+02          1.903e-02           5.643e+01           6.804e+01           
 ------------------------------------------------------------------------------------------------
 -------------------------------------------
 STEP OF MOLECULAR DYNAMICS : 3
 -------------------------------------------
 DONE(3.445e+03  SEC) : INIT SCF
 ITER   ETOT(eV)       EDIFF(eV)      DRHO       TIME(s)    
 GE1    -9.456333e+03  0.000000e+00   1.953e-03  1.129e+02  
 GE2    -9.456330e+03  2.671757e-03   1.307e-03  1.068e+02  
 GE3    -9.456334e+03  -4.118145e-03  1.214e-03  1.070e+02  
 GE4    -9.456339e+03  -4.951955e-03  3.156e-04  1.071e+02  
 GE5    -9.456340e+03  -3.104927e-04  1.743e-04  1.069e+02  
 GE6    -9.456340e+03  -1.092604e-04  6.398e-05  1.071e+02  
 GE7    -9.456340e+03  -1.311342e-05  2.656e-05  1.069e+02  
 GE8    -9.456340e+03  -2.336902e-06  6.349e-06  1.070e+02  
 GE9    -9.456340e+03  -1.280586e-07  2.011e-06  1.068e+02  
 GE10   -9.456340e+03  -9.676711e-09  4.542e-07  1.070e+02  
 ><><><><><><><><><><><><><><><><><><><><><><
 TOTAL-STRESS (KBAR):
 ><><><><><><><><><><><><><><><><><><><><><><
 6.905e+01      1.397e+00      -1.072e+00     
 1.397e+00      6.665e+01      6.425e-02      
 -1.072e+00     6.425e-02      6.641e+01      
 TOTAL-PRESSURE: 6.737e+01 KBAR
 ------------------------------------------------------------------------------------------------
 Energy              Potential           Kinetic             Temperature         Pressure (KBAR)     
 -3.475e+02          -3.475e+02          2.411e-02           7.148e+01           6.832e+01           
 ------------------------------------------------------------------------------------------------
 -------------------------------------------
 STEP OF MOLECULAR DYNAMICS : 4
 -------------------------------------------
 DONE(4.626e+03  SEC) : INIT SCF
 ITER   ETOT(eV)       EDIFF(eV)      DRHO       TIME(s)    
 GE1    -9.456303e+03  0.000000e+00   2.495e-03  1.127e+02  
 GE2    -9.456302e+03  1.181798e-03   1.458e-03  1.067e+02  
 GE3    -9.456308e+03  -5.608447e-03  1.323e-03  1.067e+02  
 GE4    -9.456313e+03  -5.147865e-03  3.016e-04  1.067e+02  
 GE5    -9.456313e+03  -1.959088e-04  2.087e-04  1.065e+02  
 GE6    -9.456313e+03  -1.810167e-04  9.203e-05  1.065e+02  
 GE7    -9.456313e+03  -3.155956e-05  3.466e-05  1.065e+02  
 GE8    -9.456313e+03  -4.212829e-06  6.650e-06  1.068e+02  
 GE9    -9.456313e+03  -1.145459e-07  1.944e-06  1.065e+02  
 GE10   -9.456313e+03  -6.720797e-09  5.662e-07  1.069e+02  
 ><><><><><><><><><><><><><><><><><><><><><><
 TOTAL-STRESS (KBAR):
 ><><><><><><><><><><><><><><><><><><><><><><
 6.865e+01      2.075e+00      -7.748e-01     
 2.075e+00      6.756e+01      1.519e-01      
 -7.748e-01     1.519e-01      6.617e+01      
 TOTAL-PRESSURE: 6.746e+01 KBAR
 ------------------------------------------------------------------------------------------------
 Energy              Potential           Kinetic             Temperature         Pressure (KBAR)     
 -3.475e+02          -3.475e+02          3.881e-02           1.151e+02           6.899e+01           
 ------------------------------------------------------------------------------------------------
 -------------------------------------------
 STEP OF MOLECULAR DYNAMICS : 5
 -------------------------------------------
 DONE(5.804e+03  SEC) : INIT SCF
 ITER   ETOT(eV)       EDIFF(eV)      DRHO       TIME(s)    
 GE1    -9.456268e+03  0.000000e+00   2.736e-03  1.127e+02  
 GE2    -9.456266e+03  2.657208e-03   1.618e-03  1.067e+02  
 GE3    -9.456272e+03  -6.244262e-03  1.522e-03  1.068e+02  
 GE4    -9.456279e+03  -7.495290e-03  3.690e-04  1.066e+02  
 GE5    -9.456280e+03  -3.443935e-04  2.399e-04  1.068e+02  
 GE6    -9.456280e+03  -2.441441e-04  1.050e-04  1.068e+02  
 GE7    -9.456280e+03  -3.799286e-05  3.468e-05  1.069e+02  
 GE8    -9.456280e+03  -4.145598e-06  5.928e-06  1.068e+02  
 GE9    -9.456280e+03  -9.022264e-08  1.898e-06  1.067e+02  
 GE10   -9.456280e+03  -7.293109e-09  5.882e-07  1.066e+02  
 ><><><><><><><><><><><><><><><><><><><><><><
 TOTAL-STRESS (KBAR):
 ><><><><><><><><><><><><><><><><><><><><><><
 6.956e+01      2.890e+00      -8.909e-01     
 2.890e+00      6.592e+01      -1.381e-01     
 -8.909e-01     -1.381e-01     6.723e+01      
 TOTAL-PRESSURE: 6.757e+01 KBAR
 ------------------------------------------------------------------------------------------------
 Energy              Potential           Kinetic             Temperature         Pressure (KBAR)     
 -3.475e+02          -3.475e+02          4.442e-02           1.317e+02           6.932e+01           
 ------------------------------------------------------------------------------------------------
 -------------------------------------------
 STEP OF MOLECULAR DYNAMICS : 6
 -------------------------------------------
 DONE(6.983e+03  SEC) : INIT SCF
 ITER   ETOT(eV)       EDIFF(eV)      DRHO       TIME(s)    
 GE1    -9.456241e+03  0.000000e+00   2.811e-03  1.127e+02  
 GE2    -9.456243e+03  -1.875547e-03  1.586e-03  1.069e+02  
 GE3    -9.456249e+03  -5.614736e-03  1.224e-03  1.069e+02  
 GE4    -9.456253e+03  -3.925082e-03  3.166e-04  1.071e+02  
 GE5    -9.456253e+03  -2.020579e-04  1.725e-04  1.072e+02  
 GE6    -9.456253e+03  -1.014933e-04  8.854e-05  1.072e+02  
 GE7    -9.456253e+03  -2.115978e-05  2.096e-05  1.068e+02  
 GE8    -9.456253e+03  -1.997696e-06  1.360e-05  1.070e+02  
 GE9    -9.456253e+03  -6.418075e-07  2.698e-06  1.069e+02  
 GE10   -9.456253e+03  -1.867593e-08  7.001e-07  1.067e+02  
 ><><><><><><><><><><><><><><><><><><><><><><
 TOTAL-STRESS (KBAR):
 ><><><><><><><><><><><><><><><><><><><><><><
 6.924e+01      3.359e+00      -4.129e-01     
 3.359e+00      6.641e+01      -9.808e-02     
 -4.129e-01     -9.808e-02     6.728e+01      
 TOTAL-PRESSURE: 6.765e+01 KBAR
 ------------------------------------------------------------------------------------------------
 Energy              Potential           Kinetic             Temperature         Pressure (KBAR)     
 -3.474e+02          -3.475e+02          6.320e-02           1.874e+02           7.013e+01           
 ------------------------------------------------------------------------------------------------
 -------------------------------------------
 STEP OF MOLECULAR DYNAMICS : 7
 -------------------------------------------
 DONE(8.164e+03  SEC) : INIT SCF
 ITER   ETOT(eV)       EDIFF(eV)      DRHO       TIME(s)    
 GE1    -9.456156e+03  0.000000e+00   3.486e-03  1.127e+02  
 GE2    -9.456150e+03  6.619814e-03   2.023e-03  1.066e+02  
 GE3    -9.456161e+03  -1.123415e-02  1.962e-03  1.066e+02  
 GE4    -9.456174e+03  -1.314374e-02  4.619e-04  1.064e+02  
 GE5    -9.456175e+03  -5.907011e-04  3.184e-04  1.070e+02  
 GE6    -9.456175e+03  -3.876943e-04  1.317e-04  1.066e+02  
 GE7    -9.456175e+03  -5.586254e-05  4.338e-05  1.065e+02  
 GE8    -9.456175e+03  -6.748742e-06  9.274e-06  1.066e+02  
 GE9    -9.456175e+03  -2.510206e-07  3.048e-06  1.065e+02  
 GE10   -9.456175e+03  -1.929310e-08  7.842e-07  1.065e+02  
 ><><><><><><><><><><><><><><><><><><><><><><
 TOTAL-STRESS (KBAR):
 ><><><><><><><><><><><><><><><><><><><><><><
 6.871e+01      5.197e+00      4.740e-01      
 5.197e+00      6.752e+01      -6.002e-01     
 4.740e-01      -6.002e-01     6.756e+01      
 TOTAL-PRESSURE: 6.793e+01 KBAR
 ------------------------------------------------------------------------------------------------
 Energy              Potential           Kinetic             Temperature         Pressure (KBAR)     
 -3.474e+02          -3.475e+02          7.688e-02           2.279e+02           7.095e+01           
 ------------------------------------------------------------------------------------------------
 -------------------------------------------
 STEP OF MOLECULAR DYNAMICS : 8
 -------------------------------------------
 DONE(9.341e+03  SEC) : INIT SCF
 ITER   ETOT(eV)       EDIFF(eV)      DRHO       TIME(s)    
 GE1    -9.456096e+03  0.000000e+00   3.786e-03  1.132e+02  
 GE2    -9.456098e+03  -2.500968e-03  2.129e-03  1.065e+02  
 GE3    -9.456109e+03  -1.101474e-02  1.672e-03  1.067e+02  
 GE4    -9.456117e+03  -8.296044e-03  4.485e-04  1.067e+02  
 GE5    -9.456118e+03  -4.288016e-04  2.620e-04  1.069e+02  
 GE6    -9.456118e+03  -2.523228e-04  1.344e-04  1.069e+02  
 GE7    -9.456118e+03  -6.429005e-05  4.949e-05  1.067e+02  
 GE8    -9.456118e+03  -1.015525e-05  1.272e-05  1.068e+02  
 GE9    -9.456118e+03  -5.494797e-07  3.805e-06  1.069e+02  
 GE10   -9.456118e+03  -2.928381e-08  9.532e-07  1.068e+02  
 ><><><><><><><><><><><><><><><><><><><><><><
 TOTAL-STRESS (KBAR):
 ><><><><><><><><><><><><><><><><><><><><><><
 6.729e+01      5.881e+00      1.048e+00      
 5.881e+00      6.797e+01      -1.561e+00     
 1.048e+00      -1.561e+00     6.901e+01      
 TOTAL-PRESSURE: 6.809e+01 KBAR
 ------------------------------------------------------------------------------------------------
 Energy              Potential           Kinetic             Temperature         Pressure (KBAR)     
 -3.474e+02          -3.475e+02          7.353e-02           2.180e+02           7.098e+01           
 ------------------------------------------------------------------------------------------------
 -------------------------------------------
 STEP OF MOLECULAR DYNAMICS : 9
 -------------------------------------------
 DONE(1.052e+04  SEC) : INIT SCF
 ITER   ETOT(eV)       EDIFF(eV)      DRHO       TIME(s)    
 GE1    -9.456057e+03  0.000000e+00   3.660e-03  1.127e+02  
 GE2    -9.456053e+03  4.087620e-03   2.315e-03  1.065e+02  
 GE3    -9.456068e+03  -1.555959e-02  2.020e-03  1.067e+02  
 GE4    -9.456079e+03  -1.085011e-02  4.082e-04  1.068e+02  
 GE5    -9.456079e+03  -3.043632e-04  2.378e-04  1.065e+02  
 GE6    -9.456080e+03  -1.904496e-04  1.315e-04  1.067e+02  
 GE7    -9.456080e+03  -6.354393e-05  5.497e-05  1.071e+02  
 GE8    -9.456080e+03  -1.177178e-05  1.213e-05  1.066e+02  
 GE9    -9.456080e+03  -4.637056e-07  4.050e-06  1.067e+02  
 GE10   -9.456080e+03  -3.299919e-08  9.810e-07  1.065e+02  
 ><><><><><><><><><><><><><><><><><><><><><><
 TOTAL-STRESS (KBAR):
 ><><><><><><><><><><><><><><><><><><><><><><
 6.693e+01      5.448e+00      4.527e-01      
 5.448e+00      6.788e+01      -9.155e-01     
 4.527e-01      -9.155e-01     6.978e+01      
 TOTAL-PRESSURE: 6.820e+01 KBAR
 ------------------------------------------------------------------------------------------------
 Energy              Potential           Kinetic             Temperature         Pressure (KBAR)     
 -3.474e+02          -3.475e+02          7.718e-02           2.288e+02           7.123e+01           
 ------------------------------------------------------------------------------------------------
 -------------------------------------------
 STEP OF MOLECULAR DYNAMICS : 10
 -------------------------------------------
 DONE(1.170e+04  SEC) : INIT SCF
 ITER   ETOT(eV)       EDIFF(eV)      DRHO       TIME(s)    
 GE1    -9.455993e+03  0.000000e+00   3.651e-03  1.127e+02  
 GE2    -9.455990e+03  2.662601e-03   2.136e-03  1.065e+02  
 GE3    -9.456002e+03  -1.183581e-02  1.874e-03  1.067e+02  
 GE4    -9.456013e+03  -1.074917e-02  4.990e-04  1.064e+02  
 GE5    -9.456013e+03  -7.227824e-04  3.665e-04  1.066e+02  
 GE6    -9.456014e+03  -5.009613e-04  1.260e-04  1.066e+02  
 GE7    -9.456014e+03  -5.041807e-05  5.125e-05  1.067e+02  
 GE8    -9.456014e+03  -9.182787e-06  1.005e-05  1.066e+02  
 GE9    -9.456014e+03  -2.677244e-07  3.404e-06  1.063e+02  
 GE10   -9.456014e+03  -2.129464e-08  9.243e-07  1.067e+02  
 ><><><><><><><><><><><><><><><><><><><><><><
 TOTAL-STRESS (KBAR):
 ><><><><><><><><><><><><><><><><><><><><><><
 6.466e+01      4.703e+00      9.807e-01      
 4.703e+00      6.963e+01      -1.336e+00     
 9.807e-01      -1.336e+00     7.105e+01      
 TOTAL-PRESSURE: 6.845e+01 KBAR
 ------------------------------------------------------------------------------------------------
 Energy              Potential           Kinetic             Temperature         Pressure (KBAR)     
 -3.474e+02          -3.475e+02          1.030e-01           3.054e+02           7.249e+01           
 ------------------------------------------------------------------------------------------------

  |CLASS_NAME---------|NAME---------------|TIME(Sec)-----|CALLS----|AVG------|PER%-------
                       total               12875          27        4.8e+02   1e+02     %
   Driver              driver_line         12875          1         1.3e+04   1e+02     %
   PW_Basis            setup_struc_factor  1.1721         11        0.11      0.0091    %
   ORB_control         read_orb_first      0.17903        1         0.18      0.0014    %
   LCAO_Orbitals       Read_Orbitals       0.17903        1         0.18      0.0014    %
   NOrbital_Lm         extra_uniform       0.10395        16        0.0065    0.00081   %
   ORB_control         set_orb_tables      6.7428         1         6.7       0.052     %
   ORB_gen_tables      gen_tables          6.7428         1         6.7       0.052     %
   ORB_table_phi       init_Table          5.2334         1         5.2       0.041     %
   ORB_table_phi       cal_ST_Phi12_R      5.2042         558       0.0093    0.04      %
   ORB_table_beta      init_Table_Beta     1.3184         1         1.3       0.01      %
   ORB_table_beta      VNL_PhiBeta_R       1.3121         168       0.0078    0.01      %
   ppcell_vl           init_vloc           0.11276        1         0.11      0.00088   %
   Run_MD              md_line             12867          1         1.3e+04   1e+02     %
   Langevin            setup               1184.2         1         1.2e+03   9.2       %
   MD_func             force_stress        12867          11        1.2e+03   1e+02     %
   ESolver_KS_LCAO     Run                 11725          11        1.1e+03   91        %
   ESolver_KS_LCAO     beforescf           18.763         11        1.7       0.15      %
   ESolver_KS_LCAO     beforesolver        9.0755         11        0.83      0.07      %
   ESolver_KS_LCAO     set_matrix_grid     6.1278         11        0.56      0.048     %
   Grid_Technique      init                3.2276         11        0.29      0.025     %
   Grid_BigCell        grid_expansion_index0.86788        22        0.039     0.0067    %
   Record_adj          for_2d              2.5982         11        0.24      0.02      %
   Grid_Driver         Find_atom           14.827         592632    2.5e-05   0.12      %
   Charge              atomic_rho          7.1008         21        0.34      0.055     %
   PW_Basis            recip2real          3.0018         665       0.0045    0.023     %
   PW_Basis            gathers_scatterp    1.8693         665       0.0028    0.015     %
   Potential           init_pot            0.95453        11        0.087     0.0074    %
   Potential           update_from_charge  9.6138         120       0.08      0.075     %
   Potential           cal_v_eff           9.569          120       0.08      0.074     %
   H_Hartree_pw        v_hartree           1.0237         120       0.0085    0.008     %
   PW_Basis            real2recip          3.1436         1004      0.0031    0.024     %
   PW_Basis            gatherp_scatters    1.3632         1004      0.0014    0.011     %
   PotXC               cal_v_eff           8.4677         120       0.071     0.066     %
   XC_Functional       v_xc                8.4223         120       0.07      0.065     %
   HSolverLCAO         solve               11690          109       1.1e+02   91        %
   HamiltLCAO          updateHk            4180.9         3924      1.1       32        %
   OperatorLCAO        init                3531.6         7848      0.45      27        %
   Veff                contributeHk        3529.7         3924      0.9       27        %
   Gint_interface      cal_gint            5928.6         229       26        46        %
   Gint_interface      cal_gint_vlocal     2787.4         109       26        22        %
   Gint_k              folding_vl_k        742.3          3924      0.19      5.8       %
   Gint_k              Distri              532.72         3924      0.14      4.1       %
   Overlap             contributeHR        4.6538         11        0.42      0.036     %
   LCAO_gen_fixedH     calculate_S_no      4.6538         11        0.42      0.036     %
   Ekinetic<OperatorLCAO>contributeHR        4.7151         11        0.43      0.037     %
   Nonlocal<OperatorLCAO>contributeHR        51.83          11        4.7       0.4       %
   LCAO_gen_fixedH     build_Nonlocal_mu_new162.4          22        7.4       1.3       %
   ORB_gen_tables      snap_psibeta_half   3.3735         1258530   2.7e-06   0.026     %
   OperatorLCAO        folding_fixed       588.04         3924      0.15      4.6       %
   LCAO_nnr            folding_fixedH      582.03         3924      0.15      4.5       %
   HSolverLCAO         hamiltSolvePsiK     1725.9         3924      0.44      13        %
   DiagoElpa           elpa_solve          1707.1         3924      0.44      13        %
   ElecStateLCAO       psiToRho            5783.6         109       53        45        %
   elecstate           cal_dm              239.73         120       2         1.9       %
   psiMulPsiMpi        pdgemm              235.29         4320      0.054     1.8       %
    Local_Orbital_wfc  wfc_2d_to_grid      25.471         3924      0.0065    0.2       %
   LCAO_Charge         cal_dk_k            2958.1         109       27        23        %
   Record_adj          for_grid            0.59468        109       0.0055    0.0046    %
   Gint_interface      cal_gint_rho        2544.3         109       23        20        %
   Charge              mix_rho             1.373          98        0.014     0.011     %
   Force_Stress_LCAO   getForceStress      1142.2         11        1e+02     8.9       %
   Forces              cal_force_loc       0.89798        11        0.082     0.007     %
   Forces              cal_force_ew        0.88115        11        0.08      0.0068    %
   Forces              cal_force_scc       4.0247         11        0.37      0.031     %
   Stress_Func         stress_loc          3.0298         11        0.28      0.024     %
   Stress_Func         stress_ewa          0.40076        11        0.036     0.0031    %
   Stress_Func         stress_gga          0.46943        11        0.043     0.0036    %
   Force_LCAO_k        ftable_k            1132.4         11        1e+02     8.8       %
   Force_LCAO_k        allocate_k          141.12         11        13        1.1       %
   Force_LCAO_k        cal_foverlap_k      43.671         11        4         0.34      %
   Force_LCAO_k        cal_edm_2d          42.68          11        3.9       0.33      %
   Local_Orbital_Chargecal_dm_R            12.086         22        0.55      0.094     %
   Force_LCAO_k        cal_ftvnl_dphi_k    0.30033        11        0.027     0.0023    %
   Force_LCAO_k        cal_fvl_dphi_k      596.88         11        54        4.6       %
   Gint_interface      cal_gint_force      596.88         11        54        4.6       %
   Force_LCAO_k        cal_fvnl_dbeta_k_new291.8          11        27        2.3       %
 ----------------------------------------------------------------------------------------

 START  Time  : Mon May 22 14:16:29 2023
 FINISH Time  : Mon May 22 17:51:04 2023
 TOTAL  Time  : 1.3e+04
 SEE INFORMATION IN : OUT.ABACUS/
