WARNING: Total thread number on this node mismatches with hardware availability. This may cause poor performance.
Info: Local MPI proc number: 16,OpenMP thread number: 1,Total thread number: 16, *********************************************************
 *                                                       *
 *                  WELCOME TO ABACUS v3.0               *
 *                                                       *
 *            'Atomic-orbital Based Ab-initio            *
 *                  Computation at UStc'                 *
 *                                                       *
 *          Website: http://abacus.ustc.edu.cn/          *
 *                                                       *
 *********************************************************
 Local thread limit: 32
Mon May 22 14:16:29 2023
 MAKE THE DIR         : OUT.ABACUS/
 MAKE THE STRU DIR    : OUT.ABACUS/STRU/
 UNIFORM GRID DIM     : 120 * 120 * 128
 UNIFORM GRID DIM(BIG): 60 * 60 * 64
 DONE(0.116112   SEC) : SETUP UNITCELL
 DONE(0.125338   SEC) : INIT K-POINTS
 ---------------------------------------------------------
 Molecular Dynamics simulations
 ---------------------------------------------------------
 ENSEMBLE                 : Langevin
 Time interval(fs)        : 1
 ---------------------------------------------------------
 SPIN    KPOINTS         PROCESSORS  NBASE       
 1       36              16          1584        
 ---------------------------------------------------------
 Use Systematically Improvable Atomic bases
 ---------------------------------------------------------
 ELEMENT ORBITALS        NBASE       NATOM       XC          
 Si      3s3p2d-9au      22          36          
 C       3s3p2d-9au      22          36          
 ---------------------------------------------------------
 Initial plane wave basis and FFT box
 ---------------------------------------------------------
--------------------------------- INITVEL DONE ------------------------------------
 -------------------------------------------
 STEP OF MOLECULAR DYNAMICS : 0
 -------------------------------------------
 START CHARGE      : atomic
 DONE(10.4613    SEC) : INIT SCF
 ITER   ETOT(eV)       EDIFF(eV)      DRHO       TIME(s)    
 GE1    -9.381483e+03  0.000000e+00   2.697e-01  1.042e+02  
 GE2    -9.434990e+03  -5.350722e+01  1.555e-01  9.886e+01  
 GE3    -9.448754e+03  -1.376359e+01  2.788e-02  9.871e+01  
 GE4    -9.442115e+03  6.638852e+00   5.625e-02  9.824e+01  
 GE5    -9.452680e+03  -1.056550e+01  6.300e-03  9.809e+01  
 GE6    -9.452805e+03  -1.248144e-01  4.534e-03  9.808e+01  
 GE7    -9.452865e+03  -5.950989e-02  9.692e-04  9.805e+01  
 GE8    -9.452867e+03  -2.598071e-03  4.658e-04  9.811e+01  
 GE9    -9.452867e+03  1.316663e-04   3.383e-04  9.822e+01  
 GE10   -9.452867e+03  -2.342996e-04  1.163e-04  9.823e+01  
 GE11   -9.452867e+03  -4.805719e-05  6.155e-05  9.855e+01  
 GE12   -9.452868e+03  -1.204370e-05  2.319e-05  9.856e+01  
 GE13   -9.452868e+03  -1.315714e-06  1.169e-05  9.818e+01  
 GE14   -9.452868e+03  -4.860923e-07  4.781e-06  9.801e+01  
 GE15   -9.452868e+03  -8.078104e-08  2.770e-06  9.811e+01  
 GE16   -9.452868e+03  -8.344925e-09  8.855e-07  9.816e+01  
 ><><><><><><><><><><><><><><><><><><><><><><
 TOTAL-STRESS (KBAR):
 ><><><><><><><><><><><><><><><><><><><><><><
 -9.891e+01     -2.124e+01     -4.131e+01     
 -2.124e+01     -1.272e+00     -3.680e+01     
 -4.131e+01     -3.680e+01     -9.193e+01     
 TOTAL-PRESSURE: -6.404e+01 KBAR
 ------------------------------------------------------------------------------------------------
 Energy              Potential           Kinetic             Temperature         Pressure (KBAR)     
 -3.474e+02          -3.474e+02          3.373e-03           1.000e+01           -6.391e+01          
 ------------------------------------------------------------------------------------------------
 -------------------------------------------
 STEP OF MOLECULAR DYNAMICS : 1
 -------------------------------------------
 DONE(1.684e+03  SEC) : INIT SCF
 ITER   ETOT(eV)       EDIFF(eV)      DRHO       TIME(s)    
 GE1    -9.452897e+03  0.000000e+00   4.435e-04  1.032e+02  
 GE2    -9.452897e+03  2.446877e-05   2.411e-04  9.773e+01  
 GE3    -9.452897e+03  -1.079996e-04  2.335e-04  9.813e+01  
 GE4    -9.452897e+03  -1.618491e-04  6.059e-05  9.828e+01  
 GE5    -9.452897e+03  -9.501009e-06  4.148e-05  9.778e+01  
 GE6    -9.452897e+03  -7.063617e-06  1.728e-05  9.768e+01  
 GE7    -9.452897e+03  -1.081900e-06  6.194e-06  9.767e+01  
 GE8    -9.452897e+03  -1.128924e-07  1.347e-06  9.770e+01  
 GE9    -9.452897e+03  -3.597831e-09  5.531e-07  9.768e+01  
 ><><><><><><><><><><><><><><><><><><><><><><
 TOTAL-STRESS (KBAR):
 ><><><><><><><><><><><><><><><><><><><><><><
 -9.882e+01     -2.121e+01     -4.141e+01     
 -2.121e+01     -1.772e+00     -3.683e+01     
 -4.141e+01     -3.683e+01     -9.191e+01     
 TOTAL-PRESSURE: -6.417e+01 KBAR
 ------------------------------------------------------------------------------------------------
 Energy              Potential           Kinetic             Temperature         Pressure (KBAR)     
 -3.474e+02          -3.474e+02          7.897e-03           2.341e+01           -6.388e+01          
 ------------------------------------------------------------------------------------------------
 -------------------------------------------
 STEP OF MOLECULAR DYNAMICS : 2
 -------------------------------------------
 DONE(2.666e+03  SEC) : INIT SCF
 ITER   ETOT(eV)       EDIFF(eV)      DRHO       TIME(s)    
 GE1    -9.452953e+03  0.000000e+00   1.523e-03  1.030e+02  
 GE2    -9.452951e+03  1.188455e-03   1.003e-03  9.822e+01  
 GE3    -9.452954e+03  -2.591674e-03  9.026e-04  9.845e+01  
 GE4    -9.452956e+03  -2.270290e-03  2.310e-04  9.779e+01  
 GE5    -9.452956e+03  -1.390776e-04  1.665e-04  9.773e+01  
 GE6    -9.452957e+03  -1.036692e-04  6.149e-05  9.777e+01  
 GE7    -9.452957e+03  -1.218487e-05  2.567e-05  9.764e+01  
 GE8    -9.452957e+03  -2.148785e-06  5.313e-06  9.775e+01  
 GE9    -9.452957e+03  -7.725591e-08  2.218e-06  9.775e+01  
 GE10   -9.452957e+03  -1.371847e-08  1.074e-06  9.768e+01  
 GE11   -9.452957e+03  -1.153904e-09  5.929e-07  9.811e+01  
 ><><><><><><><><><><><><><><><><><><><><><><
 TOTAL-STRESS (KBAR):
 ><><><><><><><><><><><><><><><><><><><><><><
 -9.890e+01     -2.097e+01     -4.181e+01     
 -2.097e+01     -2.670e+00     -3.710e+01     
 -4.181e+01     -3.710e+01     -9.204e+01     
 TOTAL-PRESSURE: -6.454e+01 KBAR
 ------------------------------------------------------------------------------------------------
 Energy              Potential           Kinetic             Temperature         Pressure (KBAR)     
 -3.474e+02          -3.474e+02          2.092e-02           6.202e+01           -6.377e+01          
 ------------------------------------------------------------------------------------------------
 -------------------------------------------
 STEP OF MOLECULAR DYNAMICS : 3
 -------------------------------------------
 DONE(3.843e+03  SEC) : INIT SCF
 ITER   ETOT(eV)       EDIFF(eV)      DRHO       TIME(s)    
 GE1    -9.453017e+03  0.000000e+00   1.889e-03  1.032e+02  
 GE2    -9.453014e+03  2.402521e-03   1.281e-03  9.751e+01  
 GE3    -9.453018e+03  -3.649872e-03  1.180e-03  9.748e+01  
 GE4    -9.453022e+03  -4.348255e-03  3.269e-04  9.747e+01  
 GE5    -9.453022e+03  -3.291776e-04  2.037e-04  9.751e+01  
 GE6    -9.453023e+03  -1.472862e-04  6.951e-05  9.753e+01  
 GE7    -9.453023e+03  -1.498004e-05  2.840e-05  9.801e+01  
 GE8    -9.453023e+03  -2.610531e-06  7.132e-06  9.800e+01  
 GE9    -9.453023e+03  -1.437462e-07  3.450e-06  9.831e+01  
 GE10   -9.453023e+03  -4.127142e-08  1.662e-06  9.782e+01  
 GE11   -9.453023e+03  -6.580039e-09  6.811e-07  9.752e+01  
 ><><><><><><><><><><><><><><><><><><><><><><
 TOTAL-STRESS (KBAR):
 ><><><><><><><><><><><><><><><><><><><><><><
 -9.836e+01     -2.069e+01     -4.240e+01     
 -2.069e+01     -4.432e+00     -3.685e+01     
 -4.240e+01     -3.685e+01     -9.201e+01     
 TOTAL-PRESSURE: -6.494e+01 KBAR
 ------------------------------------------------------------------------------------------------
 Energy              Potential           Kinetic             Temperature         Pressure (KBAR)     
 -3.474e+02          -3.474e+02          2.555e-02           7.575e+01           -6.400e+01          
 ------------------------------------------------------------------------------------------------
 -------------------------------------------
 STEP OF MOLECULAR DYNAMICS : 4
 -------------------------------------------
 DONE(5.019e+03  SEC) : INIT SCF
 ITER   ETOT(eV)       EDIFF(eV)      DRHO       TIME(s)    
 GE1    -9.453031e+03  0.000000e+00   2.364e-03  1.032e+02  
 GE2    -9.453030e+03  1.301330e-03   1.393e-03  9.739e+01  
 GE3    -9.453035e+03  -4.512938e-03  1.310e-03  9.746e+01  
 GE4    -9.453039e+03  -4.675102e-03  3.093e-04  9.745e+01  
 GE5    -9.453039e+03  -2.028651e-04  2.280e-04  9.758e+01  
 GE6    -9.453040e+03  -2.012124e-04  9.760e-05  9.783e+01  
 GE7    -9.453040e+03  -3.180492e-05  3.587e-05  9.787e+01  
 GE8    -9.453040e+03  -4.213909e-06  7.245e-06  9.746e+01  
 GE9    -9.453040e+03  -1.209914e-07  3.082e-06  9.743e+01  
 GE10   -9.453040e+03  -2.679038e-08  1.488e-06  9.740e+01  
 GE11   -9.453040e+03  -3.014691e-09  7.601e-07  9.741e+01  
 ><><><><><><><><><><><><><><><><><><><><><><
 TOTAL-STRESS (KBAR):
 ><><><><><><><><><><><><><><><><><><><><><><
 -9.887e+01     -2.035e+01     -4.238e+01     
 -2.035e+01     -4.276e+00     -3.704e+01     
 -4.238e+01     -3.704e+01     -9.249e+01     
 TOTAL-PRESSURE: -6.521e+01 KBAR
 ------------------------------------------------------------------------------------------------
 Energy              Potential           Kinetic             Temperature         Pressure (KBAR)     
 -3.474e+02          -3.474e+02          4.100e-02           1.216e+02           -6.371e+01          
 ------------------------------------------------------------------------------------------------
 -------------------------------------------
 STEP OF MOLECULAR DYNAMICS : 5
 -------------------------------------------
 DONE(6.192e+03  SEC) : INIT SCF
 ITER   ETOT(eV)       EDIFF(eV)      DRHO       TIME(s)    
 GE1    -9.453121e+03  0.000000e+00   2.647e-03  1.030e+02  
 GE2    -9.453118e+03  3.146916e-03   1.595e-03  9.743e+01  
 GE3    -9.453123e+03  -5.597089e-03  1.569e-03  9.778e+01  
 GE4    -9.453131e+03  -7.415504e-03  3.786e-04  9.805e+01  
 GE5    -9.453131e+03  -2.962896e-04  2.584e-04  9.757e+01  
 GE6    -9.453131e+03  -2.755671e-04  1.201e-04  9.742e+01  
 GE7    -9.453131e+03  -4.629129e-05  3.420e-05  9.748e+01  
 GE8    -9.453131e+03  -3.609645e-06  7.034e-06  9.727e+01  
 GE9    -9.453131e+03  -1.064082e-07  3.475e-06  9.761e+01  
 GE10   -9.453131e+03  -4.015928e-08  1.846e-06  9.765e+01  
 GE11   -9.453131e+03  -7.359621e-09  7.991e-07  9.769e+01  
 ><><><><><><><><><><><><><><><><><><><><><><
 TOTAL-STRESS (KBAR):
 ><><><><><><><><><><><><><><><><><><><><><><
 -9.856e+01     -2.000e+01     -4.271e+01     
 -2.000e+01     -6.516e+00     -3.712e+01     
 -4.271e+01     -3.712e+01     -9.230e+01     
 TOTAL-PRESSURE: -6.579e+01 KBAR
 ------------------------------------------------------------------------------------------------
 Energy              Potential           Kinetic             Temperature         Pressure (KBAR)     
 -3.473e+02          -3.474e+02          4.632e-02           1.374e+02           -6.409e+01          
 ------------------------------------------------------------------------------------------------
 -------------------------------------------
 STEP OF MOLECULAR DYNAMICS : 6
 -------------------------------------------
 DONE(7.367e+03  SEC) : INIT SCF
 ITER   ETOT(eV)       EDIFF(eV)      DRHO       TIME(s)    
 GE1    -9.453121e+03  0.000000e+00   2.642e-03  1.041e+02  
 GE2    -9.453122e+03  -8.007653e-04  1.524e-03  9.787e+01  
 GE3    -9.453127e+03  -4.846291e-03  1.249e-03  9.791e+01  
 GE4    -9.453131e+03  -3.888831e-03  3.334e-04  9.792e+01  
 GE5    -9.453131e+03  -1.988709e-04  2.152e-04  9.791e+01  
 GE6    -9.453131e+03  -1.701060e-04  1.093e-04  9.796e+01  
 GE7    -9.453131e+03  -4.286637e-05  3.987e-05  9.795e+01  
 GE8    -9.453131e+03  -5.945445e-06  8.823e-06  9.771e+01  
 GE9    -9.453131e+03  -2.101343e-07  3.113e-06  9.791e+01  
 GE10   -9.453131e+03  -2.484916e-08  1.211e-06  9.808e+01  
 GE11   -9.453131e+03  -1.975249e-09  6.230e-07  9.757e+01  
 ><><><><><><><><><><><><><><><><><><><><><><
 TOTAL-STRESS (KBAR):
 ><><><><><><><><><><><><><><><><><><><><><><
 -9.873e+01     -1.962e+01     -4.251e+01     
 -1.962e+01     -6.718e+00     -3.713e+01     
 -4.251e+01     -3.713e+01     -9.204e+01     
 TOTAL-PRESSURE: -6.583e+01 KBAR
 ------------------------------------------------------------------------------------------------
 Energy              Potential           Kinetic             Temperature         Pressure (KBAR)     
 -3.473e+02          -3.474e+02          6.410e-02           1.901e+02           -6.347e+01          
 ------------------------------------------------------------------------------------------------
 -------------------------------------------
 STEP OF MOLECULAR DYNAMICS : 7
 -------------------------------------------
 DONE(8.545e+03  SEC) : INIT SCF
 ITER   ETOT(eV)       EDIFF(eV)      DRHO       TIME(s)    
 GE1    -9.453108e+03  0.000000e+00   3.332e-03  1.036e+02  
 GE2    -9.453102e+03  6.670161e-03   1.969e-03  9.762e+01  
 GE3    -9.453111e+03  -9.212351e-03  1.957e-03  9.764e+01  
 GE4    -9.453123e+03  -1.252768e-02  4.873e-04  9.781e+01  
 GE5    -9.453124e+03  -6.482519e-04  3.378e-04  9.765e+01  
 GE6    -9.453124e+03  -4.100601e-04  1.350e-04  9.788e+01  
 GE7    -9.453124e+03  -5.739756e-05  4.744e-05  9.836e+01  
 GE8    -9.453124e+03  -7.482269e-06  1.074e-05  9.796e+01  
 GE9    -9.453124e+03  -3.074629e-07  5.071e-06  9.764e+01  
 GE10   -9.453124e+03  -8.200146e-08  2.483e-06  9.776e+01  
 GE11   -9.453124e+03  -2.410980e-08  1.130e-06  9.742e+01  
 GE12   -9.453124e+03  -3.054908e-09  4.267e-07  9.729e+01  
 ><><><><><><><><><><><><><><><><><><><><><><
 TOTAL-STRESS (KBAR):
 ><><><><><><><><><><><><><><><><><><><><><><
 -9.956e+01     -1.868e+01     -4.229e+01     
 -1.868e+01     -6.627e+00     -3.802e+01     
 -4.229e+01     -3.802e+01     -9.143e+01     
 TOTAL-PRESSURE: -6.587e+01 KBAR
 ------------------------------------------------------------------------------------------------
 Energy              Potential           Kinetic             Temperature         Pressure (KBAR)     
 -3.473e+02          -3.474e+02          7.855e-02           2.329e+02           -6.299e+01          
 ------------------------------------------------------------------------------------------------
 -------------------------------------------
 STEP OF MOLECULAR DYNAMICS : 8
 -------------------------------------------
 DONE(9.819e+03  SEC) : INIT SCF
 ITER   ETOT(eV)       EDIFF(eV)      DRHO       TIME(s)    
 GE1    -9.453115e+03  0.000000e+00   3.528e-03  1.031e+02  
 GE2    -9.453116e+03  -1.181065e-03  2.037e-03  9.767e+01  
 GE3    -9.453126e+03  -9.700718e-03  1.635e-03  9.832e+01  
 GE4    -9.453133e+03  -7.301158e-03  4.291e-04  9.809e+01  
 GE5    -9.453134e+03  -3.257189e-04  2.465e-04  9.769e+01  
 GE6    -9.453134e+03  -1.985453e-04  1.423e-04  9.759e+01  
 GE7    -9.453134e+03  -6.700247e-05  5.206e-05  9.764e+01  
 GE8    -9.453134e+03  -1.059806e-05  1.401e-05  9.761e+01  
 GE9    -9.453134e+03  -6.592538e-07  4.307e-06  9.767e+01  
 GE10   -9.453134e+03  -5.083521e-08  1.499e-06  9.762e+01  
 GE11   -9.453134e+03  4.098990e-10   8.790e-07  9.768e+01  
 ><><><><><><><><><><><><><><><><><><><><><><
 TOTAL-STRESS (KBAR):
 ><><><><><><><><><><><><><><><><><><><><><><
 -1.003e+02     -1.808e+01     -4.174e+01     
 -1.808e+01     -6.680e+00     -3.858e+01     
 -4.174e+01     -3.858e+01     -9.114e+01     
 TOTAL-PRESSURE: -6.602e+01 KBAR
 ------------------------------------------------------------------------------------------------
 Energy              Potential           Kinetic             Temperature         Pressure (KBAR)     
 -3.473e+02          -3.474e+02          7.445e-02           2.207e+02           -6.329e+01          
 ------------------------------------------------------------------------------------------------
 -------------------------------------------
 STEP OF MOLECULAR DYNAMICS : 9
 -------------------------------------------
 DONE(1.100e+04  SEC) : INIT SCF
 ITER   ETOT(eV)       EDIFF(eV)      DRHO       TIME(s)    
 GE1    -9.453104e+03  0.000000e+00   3.416e-03  1.037e+02  
 GE2    -9.453100e+03  4.784698e-03   2.225e-03  9.759e+01  
 GE3    -9.453113e+03  -1.385964e-02  1.960e-03  9.755e+01  
 GE4    -9.453123e+03  -9.707024e-03  3.979e-04  9.764e+01  
 GE5    -9.453123e+03  -2.891389e-04  2.139e-04  9.766e+01  
 GE6    -9.453124e+03  -1.243699e-04  1.125e-04  9.769e+01  
 GE7    -9.453124e+03  -3.778423e-05  4.982e-05  9.780e+01  
 GE8    -9.453124e+03  -1.047327e-05  1.533e-05  9.760e+01  
 GE9    -9.453124e+03  -8.306333e-07  4.693e-06  9.847e+01  
 GE10   -9.453124e+03  -5.544155e-08  1.346e-06  9.898e+01  
 GE11   -9.453124e+03  1.423046e-10   8.417e-07  9.826e+01  
 ><><><><><><><><><><><><><><><><><><><><><><
 TOTAL-STRESS (KBAR):
 ><><><><><><><><><><><><><><><><><><><><><><
 -1.004e+02     -1.835e+01     -4.200e+01     
 -1.835e+01     -7.339e+00     -3.778e+01     
 -4.200e+01     -3.778e+01     -9.050e+01     
 TOTAL-PRESSURE: -6.607e+01 KBAR
 ------------------------------------------------------------------------------------------------
 Energy              Potential           Kinetic             Temperature         Pressure (KBAR)     
 -3.473e+02          -3.474e+02          7.736e-02           2.294e+02           -6.322e+01          
 ------------------------------------------------------------------------------------------------
 -------------------------------------------
 STEP OF MOLECULAR DYNAMICS : 10
 -------------------------------------------
 DONE(1.217e+04  SEC) : INIT SCF
 ITER   ETOT(eV)       EDIFF(eV)      DRHO       TIME(s)    
 GE1    -9.453065e+03  0.000000e+00   3.436e-03  1.040e+02  
 GE2    -9.453061e+03  4.083241e-03   2.083e-03  9.819e+01  
 GE3    -9.453073e+03  -1.126925e-02  1.884e-03  9.805e+01  
 GE4    -9.453082e+03  -9.935406e-03  4.729e-04  9.808e+01  
 GE5    -9.453083e+03  -4.982590e-04  3.851e-04  9.792e+01  
 GE6    -9.453084e+03  -5.465187e-04  1.388e-04  9.816e+01  
 GE7    -9.453084e+03  -6.042352e-05  5.465e-05  9.838e+01  
 GE8    -9.453084e+03  -9.864580e-06  1.150e-05  9.775e+01  
 GE9    -9.453084e+03  -3.497026e-07  4.744e-06  9.766e+01  
 GE10   -9.453084e+03  -5.550033e-08  2.292e-06  9.775e+01  
 GE11   -9.453084e+03  -2.117244e-08  1.551e-06  9.779e+01  
 GE12   -9.453084e+03  -7.059544e-09  3.581e-07  9.772e+01  
 ><><><><><><><><><><><><><><><><><><><><><><
 TOTAL-STRESS (KBAR):
 ><><><><><><><><><><><><><><><><><><><><><><
 -1.016e+02     -1.859e+01     -4.154e+01     
 -1.859e+01     -6.470e+00     -3.828e+01     
 -4.154e+01     -3.828e+01     -8.974e+01     
 TOTAL-PRESSURE: -6.594e+01 KBAR
 ------------------------------------------------------------------------------------------------
 Energy              Potential           Kinetic             Temperature         Pressure (KBAR)     
 -3.473e+02          -3.474e+02          1.020e-01           3.023e+02           -6.219e+01          
 ------------------------------------------------------------------------------------------------

  |CLASS_NAME---------|NAME---------------|TIME(Sec)-----|CALLS----|AVG------|PER%-------
                       total               13449          27        5e+02     1e+02     %
   Driver              driver_line         13449          1         1.3e+04   1e+02     %
   PW_Basis            setup_struc_factor  1.2737         11        0.12      0.0095    %
   ORB_control         read_orb_first      0.21887        1         0.22      0.0016    %
   LCAO_Orbitals       Read_Orbitals       0.21886        1         0.22      0.0016    %
   NOrbital_Lm         extra_uniform       0.11665        16        0.0073    0.00087   %
   Mathzone_Add1       Uni_Deriv_Phi       0.10317        16        0.0064    0.00077   %
   ORB_control         set_orb_tables      7.2045         1         7.2       0.054     %
   ORB_gen_tables      gen_tables          7.2045         1         7.2       0.054     %
   ORB_table_phi       init_Table          5.3835         1         5.4       0.04      %
   ORB_table_phi       cal_ST_Phi12_R      5.3422         558       0.0096    0.04      %
   ORB_table_beta      init_Table_Beta     1.3335         1         1.3       0.0099    %
   ORB_table_beta      VNL_PhiBeta_R       1.3244         168       0.0079    0.0098    %
   ppcell_vl           init_vloc           0.27536        1         0.28      0.002     %
   Run_MD              md_line             13441          1         1.3e+04   1e+02     %
   Langevin            setup               1673.6         1         1.7e+03   12        %
   MD_func             force_stress        13440          11        1.2e+03   1e+02     %
   ESolver_KS_LCAO     Run                 12419          11        1.1e+03   92        %
   ESolver_KS_LCAO     beforescf           28.671         11        2.6       0.21      %
   ESolver_KS_LCAO     beforesolver        8.9183         11        0.81      0.066     %
   ESolver_KS_LCAO     set_matrix_grid     5.1806         11        0.47      0.039     %
   atom_arrange        search              0.10114        11        0.0092    0.00075   %
   Grid_Technique      init                2.6785         11        0.24      0.02      %
   Grid_BigCell        grid_expansion_index0.8966         22        0.041     0.0067    %
   Record_adj          for_2d              2.1971         11        0.2       0.016     %
   Grid_Driver         Find_atom           16.056         683208    2.4e-05   0.12      %
   Charge              atomic_rho          16.533         21        0.79      0.12      %
   PW_Basis            recip2real          4.652          750       0.0062    0.035     %
   PW_Basis            gathers_scatterp    3.7644         750       0.005     0.028     %
   Potential           init_pot            0.99532        11        0.09      0.0074    %
   Potential           update_from_charge  11.39          137       0.083     0.085     %
   Potential           cal_v_eff           11.34          137       0.083     0.084     %
   H_Hartree_pw        v_hartree           1.1878         137       0.0087    0.0088    %
   PW_Basis            real2recip          4.0924         1140      0.0036    0.03      %
   PW_Basis            gatherp_scatters    2.3278         1140      0.002     0.017     %
   PotXC               cal_v_eff           10.069         137       0.073     0.075     %
   XC_Functional       v_xc                10.02          137       0.073     0.075     %
   HSolverLCAO         solve               12371          126       98        92        %
   HamiltLCAO          updateHk            4401.8         4536      0.97      33        %
   OperatorLCAO        init                3744.4         9072      0.41      28        %
   Veff                contributeHk        3741.8         4536      0.82      28        %
   Gint_interface      cal_gint            4382.1         263       17        33        %
   Gint_interface      cal_gint_vlocal     2142.5         126       17        16        %
   Gint_k              folding_vl_k        1599.3         4536      0.35      12        %
   Gint_k              Distri              1345.1         4536      0.3       10        %
   Overlap             contributeHR        4.7759         11        0.43      0.036     %
   LCAO_gen_fixedH     calculate_S_no      4.7759         11        0.43      0.036     %
   Ekinetic<OperatorLCAO>contributeHR        4.9051         11        0.45      0.036     %
   Nonlocal<OperatorLCAO>contributeHR        48.885         11        4.4       0.36      %
   LCAO_gen_fixedH     build_Nonlocal_mu_new154.22         22        7         1.1       %
   ORB_gen_tables      snap_psibeta_half   3.4101         1211094   2.8e-06   0.025     %
   OperatorLCAO        folding_fixed       598.8          4536      0.13      4.5       %
   LCAO_nnr            folding_fixedH      591.19         4536      0.13      4.4       %
   HSolverLCAO         hamiltSolvePsiK     1969.7         4536      0.43      15        %
   DiagoElpa           elpa_solve          1955.7         4536      0.43      15        %
   ElecStateLCAO       psiToRho            5999.7         126       48        45        %
   elecstate           cal_dm              201.26         137       1.5       1.5       %
   psiMulPsiMpi        pdgemm              196.16         4932      0.04      1.5       %
    Local_Orbital_wfc  wfc_2d_to_grid      32.751         4536      0.0072    0.24      %
   LCAO_Charge         cal_dk_k            3067.5         126       24        23        %
   Record_adj          for_grid            0.65894        126       0.0052    0.0049    %
   Gint_interface      cal_gint_rho        1774.2         126       14        13        %
   Charge              mix_rho             1.5839         115       0.014     0.012     %
   Force_Stress_LCAO   getForceStress      1021.3         11        93        7.6       %
   Forces              cal_force_loc       0.96493        11        0.088     0.0072    %
   Forces              cal_force_ew        0.94805        11        0.086     0.007     %
   Forces              cal_force_scc       8.1715         11        0.74      0.061     %
   Stress_Func         stress_loc          7.4117         11        0.67      0.055     %
   Stress_Func         stress_ewa          0.42811        11        0.039     0.0032    %
   Stress_Func         stress_gga          0.491          11        0.045     0.0037    %
   Force_LCAO_k        ftable_k            1002.8         11        91        7.5       %
   Force_LCAO_k        allocate_k          137.37         11        12        1         %
   Force_LCAO_k        cal_foverlap_k      32.533         11        3         0.24      %
   Force_LCAO_k        cal_edm_2d          31.499         11        2.9       0.23      %
   Local_Orbital_Chargecal_dm_R            12.19          22        0.55      0.091     %
   Force_LCAO_k        cal_ftvnl_dphi_k    0.31256        11        0.028     0.0023    %
   Force_LCAO_k        cal_fvl_dphi_k      465.49         11        42        3.5       %
   Gint_interface      cal_gint_force      465.49         11        42        3.5       %
   Force_LCAO_k        cal_fvnl_dbeta_k_new277.05         11        25        2.1       %
 ----------------------------------------------------------------------------------------

 START  Time  : Mon May 22 14:16:29 2023
 FINISH Time  : Mon May 22 18:00:38 2023
 TOTAL  Time  : 1.3e+04
 SEE INFORMATION IN : OUT.ABACUS/
