3.260831861293060463e+00 1.086943953764686777e+00 3.260831861278060462e+00 3.260831861293060463e+00 1.086943953764686777e+00 7.608607676367808104e+00 3.260831861293060463e+00 5.434719768822434460e+00 3.260831861278060462e+00 3.260831861293060463e+00 5.434719768822434460e+00 7.608607676366808903e+00 7.608607676351808458e+00 1.086943953764686777e+00 3.260831861278060462e+00 7.608607676351808458e+00 1.086943953764686777e+00 7.608607676367808104e+00 7.608607676351808458e+00 5.434719768822434460e+00 3.260831861278060462e+00 7.608607676351808458e+00 5.434719768822434460e+00 7.608607676366808903e+00 3.260831861293060463e+00 3.260831861278060462e+00 1.086943953780686867e+00 3.260831861293060463e+00 3.260831861278060462e+00 5.434719768806434814e+00 3.260831861293060463e+00 7.608607676366808903e+00 1.086943953780686867e+00 3.260831861293060463e+00 7.608607676366808903e+00 5.434719768806434814e+00 7.608607676351808458e+00 3.260831861293060463e+00 1.086943953780686867e+00 7.608607676351808458e+00 3.260831861278060462e+00 5.434719768806434814e+00 7.608607676351808458e+00 7.608607676351808458e+00 1.086943953780686867e+00 7.608607676351808458e+00 7.608607676366808903e+00 5.434719768806434814e+00 1.086943953764686777e+00 1.086943953764686777e+00 1.086943953780686867e+00 1.086943953764686777e+00 1.086943953764686777e+00 5.434719768806434814e+00 1.086943953764686777e+00 5.434719768822434460e+00 1.086943953780686867e+00 1.086943953764686777e+00 5.434719768822434460e+00 5.434719768806434814e+00 5.434719768822434460e+00 1.086943953764686777e+00 1.086943953780686867e+00 5.434719768822434460e+00 1.086943953764686777e+00 5.434719768806434814e+00 5.434719768822434460e+00 5.434719768822434460e+00 1.086943953780686867e+00 5.434719768822434460e+00 5.434719768822434460e+00 5.434719768806434814e+00 1.086943953764686777e+00 3.260831861278060462e+00 3.260831861278060462e+00 1.086943953764686777e+00 3.260831861278060462e+00 7.608607676367808104e+00 1.086943953764686777e+00 7.608607676366808903e+00 3.260831861278060462e+00 1.086943953764686777e+00 7.608607676366808903e+00 7.608607676366808903e+00 5.434719768822434460e+00 3.260831861278060462e+00 3.260831861278060462e+00 5.434719768822434460e+00 3.260831861278060462e+00 7.608607676366808903e+00 5.434719768822434460e+00 7.608607676366808903e+00 3.260831861278060462e+00 5.434719768822434460e+00 7.608607676366808903e+00 7.608607676366808903e+00 -0.000000000000000000e+00 -0.000000000000000000e+00 1.600000000704635388e-11 -0.000000000000000000e+00 -0.000000000000000000e+00 4.347775815041747371e+00 -0.000000000000000000e+00 4.347775815057748794e+00 1.600000000704635388e-11 -0.000000000000000000e+00 4.347775815057748794e+00 4.347775815041747371e+00 4.347775815057748794e+00 -0.000000000000000000e+00 1.600000000704635388e-11 4.347775815057748794e+00 -0.000000000000000000e+00 4.347775815026747814e+00 4.347775815057748794e+00 4.347775815041747371e+00 1.600000000704635388e-11 4.347775815057748794e+00 4.347775815057748794e+00 4.347775815026747814e+00 -0.000000000000000000e+00 2.173887907529373553e+00 2.173887907513373907e+00 -0.000000000000000000e+00 2.173887907513373907e+00 6.521663722603121549e+00 -0.000000000000000000e+00 6.521663722587121015e+00 2.173887907513373907e+00 -0.000000000000000000e+00 6.521663722603121549e+00 6.521663722603121549e+00 4.347775815057748794e+00 2.173887907513373907e+00 2.173887907513373907e+00 4.347775815057748794e+00 2.173887907513373907e+00 6.521663722603121549e+00 4.347775815057748794e+00 6.521663722603121549e+00 2.173887907513373907e+00 4.347775815057748794e+00 6.521663722603121549e+00 6.521663722603121549e+00 2.173887907529373553e+00 -0.000000000000000000e+00 2.173887907513373907e+00 2.173887907529373553e+00 -0.000000000000000000e+00 6.521663722603121549e+00 2.173887907529373553e+00 4.347775815041747371e+00 2.173887907513373907e+00 2.173887907529373553e+00 4.347775815057748794e+00 6.521663722603121549e+00 6.521663722587121015e+00 -0.000000000000000000e+00 2.173887907513373907e+00 6.521663722587121015e+00 -0.000000000000000000e+00 6.521663722603121549e+00 6.521663722587121015e+00 4.347775815057748794e+00 2.173887907513373907e+00 6.521663722587121015e+00 4.347775815057748794e+00 6.521663722603121549e+00 2.173887907529373553e+00 2.173887907529373553e+00 1.600000000704635388e-11 2.173887907529373553e+00 2.173887907513373907e+00 4.347775815026747814e+00 2.173887907529373553e+00 6.521663722587121015e+00 1.600000000704635388e-11 2.173887907529373553e+00 6.521663722603121549e+00 4.347775815041747371e+00 6.521663722587121015e+00 2.173887907529373553e+00 1.600000000704635388e-11 6.521663722587121015e+00 2.173887907513373907e+00 4.347775815041747371e+00 6.521663722587121015e+00 6.521663722587121015e+00 1.600000000704635388e-11 6.521663722587121015e+00 6.521663722603121549e+00 4.347775815041747371e+00
3.261360076157293175e+00 1.086643283547554573e+00 3.261304461288268897e+00 3.260525835430926112e+00 1.087331950162857774e+00 7.609157907211050009e+00 3.260476562922904442e+00 5.434534500304352811e+00 3.260749481362024138e+00 3.260824987027057809e+00 5.433797849746028419e+00 7.609157287112050305e+00 7.609008679133985709e+00 1.086807919078626838e+00 3.260013883655700440e+00 7.608422376151726674e+00 1.086970683451698561e+00 7.608799271150893162e+00 7.608437005941732778e+00 5.434372929014281262e+00 3.261197080696221828e+00 7.608582681005796822e+00 5.434748719245447113e+00 7.607757271419433920e+00 3.262004467582577671e+00 3.260301664880827399e+00 1.087363131800871408e+00 3.260651772942981363e+00 3.260232916402796999e+00 5.434889953620509750e+00 3.261399853400311244e+00 7.609618096349252347e+00 1.087218760437807852e+00 3.261257925135248481e+00 7.607759943430434824e+00 5.434702767745427821e+00 7.608382021462708700e+00 3.260982847939127183e+00 1.087226423093811345e+00 7.609231898589082554e+00 3.261554243404378717e+00 5.434225323232217519e+00 7.608894129337934409e+00 7.608496981763759770e+00 1.086188622396353942e+00 7.609141647020043919e+00 7.609000231015981441e+00 5.435571143106809444e+00 1.086898588314667125e+00 1.087642323302994374e+00 1.086489726357486862e+00 1.086401883766448195e+00 1.087423996938898352e+00 5.434895566748512152e+00 1.086897722095666374e+00 5.435253157531668933e+00 1.086677667930569635e+00 1.086851231590646005e+00 5.434679971137416743e+00 5.434571452419368676e+00 5.435076595525591969e+00 1.086238406995376327e+00 1.087022076411721327e+00 5.434902522212515130e+00 1.087686190609013615e+00 5.434864947447498373e+00 5.434138352901178415e+00 5.434469350084324191e+00 1.086630674270548935e+00 5.434498384311337027e+00 5.434406578843296032e+00 5.434546683487358365e+00 1.086734079858594493e+00 3.261680096803434736e+00 3.261330281698279876e+00 1.087235621881815328e+00 3.261195210589221016e+00 7.609353413462137006e+00 1.086925838499678942e+00 7.608573529755793707e+00 3.260650203727980756e+00 1.086657133637560779e+00 7.609310750203117202e+00 7.608013043434546319e+00 5.434389449511288994e+00 3.259882132408642441e+00 3.260572527162946432e+00 5.434642572889401002e+00 3.260593361443955285e+00 7.607896807552495311e+00 5.434179466867196773e+00 7.607921408895506943e+00 3.261110181786183393e+00 5.434635317028397417e+00 7.608734490554864394e+00 7.608724578583860421e+00 8.857986843901031072e-04 1.463068640644331407e-04 5.230607382303543388e-04 8.694470781865019759e+00 4.821158512123223903e-04 4.347598062964669552e+00 1.584552600697832273e-04 4.346574049561217734e+00 8.695356966182409053e+00 8.695513530013476711e+00 4.348323737905989361e+00 4.347660935984698050e+00 4.346876666769351694e+00 8.695433542061444143e+00 1.730934240762298389e-04 4.347986072640839694e+00 7.280830233206455736e-04 4.347203383308495539e+00 4.348851632638220721e+00 4.347331847057550824e+00 8.695386361142421805e+00 4.346777431338307629e+00 4.348666089494139797e+00 4.348859237829224789e+00 8.695061965918279512e+00 2.172779795602885589e+00 2.174550499654665625e+00 9.196174614049968526e-04 2.173176972012060837e+00 6.522188295929352009e+00 1.056999050465499274e-03 6.521595457204091950e+00 2.172811607246899701e+00 8.695261007462367076e+00 6.521565591789078908e+00 6.521143162229892098e+00 4.347813763613764593e+00 2.173111348157031664e+00 2.173593891445244619e+00 4.347742382156733143e+00 2.174622278450697443e+00 6.521576059549081705e+00 4.346861909910344934e+00 6.521198137934916872e+00 2.174356743176580231e+00 4.348559184553092649e+00 6.522107757709316722e+00 6.521557317802074039e+00 2.173908434688382574e+00 1.913955520842900338e-04 2.173885772115372816e+00 2.174007448853426450e+00 5.315115612340760593e-04 6.520837459842756978e+00 2.173662840735274493e+00 4.348048265893867281e+00 2.174310927657559844e+00 2.172685483214844560e+00 4.347718460996722989e+00 6.521223656208927189e+00 6.521548816059070219e+00 3.041087761339286472e-04 2.172827123164906560e+00 6.522524972932500553e+00 8.694703308518121787e+00 6.521034534034844121e+00 6.521704006695139277e+00 4.347280373235530071e+00 2.173977775764413423e+00 6.520767211684726838e+00 4.348147040044910483e+00 6.522253821498380510e+00 2.173791411052331757e+00 2.174651087113709913e+00 8.695034694188267466e+00 2.174835116359790543e+00 2.173523661683213426e+00 4.347267553029523945e+00 2.173570514716233859e+00 6.522044292292289214e+00 1.097624403483390531e-03 2.174403923487600476e+00 6.521220734853926615e+00 4.346379596794132105e+00 6.521205670707919566e+00 2.173776353023324504e+00 8.694789792693159214e+00 6.521749429212159832e+00 2.174174423983499693e+00 4.348918452057251471e+00 6.521563017781076610e+00 6.521956980534249659e+00 8.694941444021226928e+00 6.520991493736825184e+00 6.521712463739143040e+00 4.348196270676932151e+00
3.261527484360366991e+00 1.084825617992754010e+00 3.261589885840394221e+00 3.257971105266800560e+00 1.086700099306579625e+00 7.608530504083773849e+00 3.259453172900453666e+00 5.435782233932902052e+00 3.259488557687469257e+00 3.261610892219403812e+00 5.434082987184154057e+00 7.611362245313021191e+00 7.609977337059411262e+00 1.088438209400344858e+00 3.261063450816162668e+00 7.607435939568291339e+00 1.087736107815035602e+00 7.606197302830747020e+00 7.608610265768809278e+00 5.436191879325082965e+00 3.261814079926493193e+00 7.609333152007128120e+00 5.434843400136489144e+00 7.607242110814206093e+00 3.261269669216253941e+00 3.261458971511336902e+00 1.088951094838570777e+00 3.261584925733392204e+00 3.258411641622994903e+00 5.432429525660426251e+00 3.259093803581295301e+00 7.610587198061679715e+00 1.085576206165084656e+00 3.261882389677523086e+00 7.608821693760901894e+00 5.435056297634582201e+00 7.605756341136552301e+00 3.258374462713978570e+00 1.086198521951358575e+00 7.607973274875528880e+00 3.262367100095736827e+00 5.436118514872050334e+00 7.607215719317195202e+00 7.607661879679391781e+00 1.087073276343743844e+00 7.611130952210920064e+00 7.609802735584334066e+00 5.434576159411371066e+00 1.088929317989561385e+00 1.085987425724265654e+00 1.084690798980694870e+00 1.086425805354458651e+00 1.089152626833659543e+00 5.435813666745915818e+00 1.089027079140604259e+00 5.433619747373949593e+00 1.086122075693324973e+00 1.087939072949125174e+00 5.436626669596273942e+00 5.434818106842477015e+00 5.436331469209143563e+00 1.088519483336380711e+00 1.085611574237099974e+00 5.437148774925503858e+00 1.087949771809129773e+00 5.437147200581502915e+00 5.434115384450167952e+00 5.434749896671447367e+00 1.088945945550568339e+00 5.436075760889031550e+00 5.436063798897026622e+00 5.435046976528578710e+00 1.087565141669960322e+00 3.264277636017578033e+00 3.263620000179288994e+00 1.086308789243407347e+00 3.263162032828086812e+00 7.609815018960339295e+00 1.087650611564998204e+00 7.609941850727395263e+00 3.262099550656618607e+00 1.088215958144246986e+00 7.608057306274566223e+00 7.608566257984789694e+00 5.434233379311219636e+00 3.258137146165874132e+00 3.262136025082635449e+00 5.436566741869247821e+00 3.262557764880821054e+00 7.608766433909877946e+00 5.433723692908995595e+00 7.608516763463767596e+00 3.261615947304405516e+00 5.435402251114735073e+00 7.608939047736954286e+00 7.606870557041043313e+00 1.505603247663063124e-03 8.691942465735907675e+00 2.124161988935474154e-03 8.694637299896093907e+00 3.147327406386073775e-03 4.347720826693723062e+00 8.692583833901187162e+00 4.346519958196194189e+00 8.695445662061446868e+00 8.691879997546879011e+00 4.350850233307101078e+00 4.346736511606289710e+00 4.348003894069847775e+00 8.695055944195276609e+00 8.692852259353307076e+00 4.347289970124533554e+00 8.694228974399912602e+00 4.346470845291173113e+00 4.344949314679503516e+00 4.349080417302322310e+00 4.305304181896042965e-04 4.349310745400423173e+00 4.349306058422421906e+00 4.348406540508025664e+00 8.694890986941205213e+00 2.176797206663654727e+00 2.170986464105096214e+00 8.693027027786385474e+00 2.174334361415570349e+00 6.522965718228695309e+00 8.694345094662963902e+00 6.519337559983097385e+00 2.173882182967370902e+00 3.130286416378568696e-03 6.523483386418923224e+00 6.520850976319763959e+00 4.347325988074549841e+00 2.175935130559275343e+00 2.177243584498851803e+00 4.351352362909322480e+00 2.177816960999104268e+00 6.523732685185032132e+00 4.345538290362762623e+00 6.521498209872047980e+00 2.172083207107579295e+00 4.348360729839004790e+00 6.525712410628904614e+00 6.521295182256959144e+00 2.177003274458745974e+00 3.961833522744779429e-03 2.171341043006251859e+00 2.173670601329278362e+00 2.776942411222956854e-03 6.522990299954705584e+00 2.176926626511711760e+00 4.346086066411003479e+00 2.176401431682480681e+00 2.176435994729495782e+00 4.346363921044126499e+00 6.520447976199585938e+00 6.522040375309287263e+00 7.226419423182493590e-04 2.173829030019347908e+00 6.520017883145396098e+00 8.694547591761052630e+00 6.519927890302356310e+00 6.522934710663681024e+00 4.350640334840008450e+00 2.171649188415387677e+00 6.521645493148112926e+00 4.351080347849202390e+00 6.519093088698988403e+00 2.172783554653887617e+00 2.172223818040640797e+00 6.791450362990934277e-04 2.175559587488109958e+00 2.174954184591843198e+00 4.348052231046868776e+00 2.170030971055675106e+00 6.522533927644503571e+00 1.581938293696681088e-03 2.172317752658682100e+00 6.517357017110224859e+00 4.345150605144591616e+00 6.517257539430180380e+00 2.177187318365826574e+00 6.731345102964464660e-05 6.523934965081122250e+00 2.177289038760871431e+00 4.352379145217774692e+00 6.518933654012919909e+00 6.521529938721062791e+00 8.694852323318185583e+00 6.523386749533880646e+00 6.522830043440634995e+00 4.351940951901581478e+00
3.259132714375312379e+00 1.083409165962130327e+00 3.264241390209562166e+00 3.257078272407407660e+00 1.089498224079811672e+00 7.610251543069532332e+00 3.259312150203391933e+00 5.434188695599200258e+00 3.262602948118840551e+00 3.258976997030243350e+00 5.436644546216282237e+00 7.612191992706386579e+00 7.611486632228076310e+00 1.091402895827650710e+00 3.258860251524192453e+00 7.605923542127626114e+00 1.085405314966009449e+00 7.604167836457852658e+00 7.609473878413189674e+00 5.433940496049092239e+00 3.259208416094346195e+00 7.607434057441291309e+00 5.437963180380863015e+00 7.603871406813722089e+00 3.258908460525213879e+00 3.258802021237166890e+00 1.088675461761449359e+00 3.262637241539855459e+00 3.261324498711277720e+00 5.429674954985212132e+00 3.259906541069653496e+00 7.607593441298361903e+00 1.084836061698758458e+00 3.261836785365503033e+00 7.608376913243706241e+00 5.433609436862945508e+00 7.603989745658774169e+00 3.261271653531254699e+00 1.086663875428563353e+00 7.605833203626586325e+00 3.259144543395317672e+00 5.435639666971838757e+00 7.609403917202158141e+00 7.609415647055163490e+00 1.086075790828304521e+00 7.614583085230440140e+00 7.606575804928914053e+00 5.434743932632444263e+00 1.086824296263634304e+00 1.087125865529767088e+00 1.086097435498313946e+00 1.085228560104931406e+00 1.091859396818851691e+00 5.436830298117365068e+00 1.087896196872106369e+00 5.430483246166568634e+00 1.087995670362150058e+00 1.090041392637051132e+00 5.437980402737870200e+00 5.436081323652034669e+00 5.439108648157367831e+00 1.087208324594803432e+00 1.087380675492879201e+00 5.435720037570875185e+00 1.090100803633077264e+00 5.434967902843544252e+00 5.434743357310444445e+00 5.431648080356080932e+00 1.086156926975340165e+00 5.433674095222974287e+00 5.434289552428245962e+00 5.432515777515463995e+00 1.088168356444225937e+00 3.261187369289217486e+00 3.266307075299471840e+00 1.089410289894773065e+00 3.260060231077720694e+00 7.612763447445638043e+00 1.087428707762900570e+00 7.608249310796650455e+00 3.262676661709873471e+00 1.085903686356228803e+00 7.608655208349828669e+00 7.608404235748718492e+00 5.436446254650195264e+00 3.261141843370197524e+00 3.262318553676715638e+00 5.437116080150490305e+00 3.264176188731533479e+00 7.606853310605036000e+00 5.432095512019277983e+00 7.609437464428173925e+00 3.261872352052519020e+00 5.432035821035252177e+00 7.611938726605275818e+00 7.605823215045582231e+00 8.693878734920756912e+00 8.692247390233040605e+00 1.012760334446016807e-03 8.692636547120212498e+00 5.033865790216899075e-03 4.349268038380404988e+00 8.692024533112940432e+00 4.344086758897122813e+00 2.055380113905183343e-03 8.690170429563124799e+00 4.347779932352749732e+00 4.349548759339528559e+00 4.345428689646714027e+00 1.481523937652458496e-03 8.687742009135055454e+00 4.350980087045158484e+00 2.466934550086430887e-03 4.347592283799667001e+00 4.343112571156694024e+00 4.350839409158096416e+00 7.334596683230134662e-04 4.352986754822042670e+00 4.346648029253250556e+00 4.345794481553875599e+00 8.690395370365223471e+00 2.176907145988703274e+00 2.175178969915942506e+00 8.694252898156925369e+00 2.174692089778728299e+00 6.526369178908193014e+00 3.713482454635406733e-03 6.521906565855228877e+00 2.172230457057644060e+00 1.614756242711133920e-03 6.518626411226783546e+00 6.515804300566539808e+00 4.342088476046242818e+00 2.175736876816187770e+00 2.174991339377859934e+00 4.353506010850271224e+00 2.181144027946569253e+00 6.523788071953057432e+00 4.345209668239617962e+00 6.517047854686088826e+00 2.168829796722146153e+00 4.348164008484919130e+00 6.530133848509851902e+00 6.516461769284831007e+00 2.172530880807776121e+00 1.187877689523137749e-03 2.173644610862266902e+00 2.174844619764795262e+00 8.693952527784789552e+00 6.527848866951845075e+00 2.180776983942407821e+00 4.342571635889456161e+00 2.176099914676347780e+00 2.179132131378683557e+00 4.349338668330435809e+00 6.515223422470285186e+00 6.522866720739651569e+00 3.240719979427203381e-03 2.176432158098494440e+00 6.524571033984400970e+00 8.690271047124170423e+00 6.523013871618715598e+00 6.527640944677753687e+00 4.346339420635114692e+00 2.169320811786362491e+00 6.518884786753897487e+00 4.354342571811639750e+00 6.514851332394121286e+00 2.175429518287052666e+00 2.169913858600623691e+00 8.692747397647259788e+00 2.180169798348140286e+00 2.177688965381047836e+00 4.343761034662979803e+00 2.175217957788959655e+00 6.526183295330111989e+00 8.695417695785435441e+00 2.174399886222599498e+00 6.517004979820069543e+00 4.344503705545307071e+00 6.518969469654934734e+00 2.175255302992975981e+00 1.105168361486712648e-03 6.519980199465380544e+00 2.172771465410882286e+00 4.351014547564173718e+00 6.515112428636235187e+00 6.523228093830810259e+00 8.690747443079379408e+00 6.527414965778654654e+00 6.523718732431026623e+00 4.348795056363195854e+00
3.260553166409938086e+00 1.083672962575246368e+00 3.262640931135857958e+00 3.260817011061054593e+00 1.091721348318790863e+00 7.607076229785134203e+00 3.255519301449721237e+00 5.434292428212246229e+00 3.261738499176459971e+00 3.256611458917201940e+00 5.436273395281118859e+00 7.609316543884120598e+00 7.609858868568359469e+00 1.090832721007399586e+00 3.254781696905396426e+00 7.607175315961177908e+00 1.082300786377642154e+00 7.603905543260736977e+00 7.606026437734670687e+00 5.436283304779123249e+00 3.261582258286391145e+00 7.608963792385964986e+00 5.441348418825353583e+00 7.606944255104075125e+00 3.255302114292625504e+00 3.255041424568509978e+00 1.088880027438539511e+00 3.259990787841690274e+00 3.264884982427845195e+00 5.426465028942799584e+00 3.258994715822252086e+00 7.608420592693725837e+00 1.085988394856266082e+00 3.263485198072229032e+00 7.608724065566859096e+00 5.432832747500603077e+00 7.606698760664967196e+00 3.261897191246529992e+00 1.090154601481100771e+00 7.603532087966573094e+00 3.261567669328384600e+00 5.434600041019382211e+00 7.608394946586714447e+00 7.606053495419684118e+00 1.088638756854433343e+00 7.613608630481010664e+00 7.608651978102828117e+00 5.438338569045027882e+00 1.089698297748899813e+00 1.089878157018979055e+00 1.087890680113103858e+00 1.086384380057440424e+00 1.091971335809900800e+00 5.437863814885818492e+00 1.087929729848120974e+00 5.431153212627863880e+00 1.089419771865777431e+00 1.086111868741320485e+00 5.440051852461782467e+00 5.436879578839385552e+00 5.436042184259016530e+00 1.084252472405501377e+00 1.084853000402766110e+00 5.438028669369891155e+00 1.092928001391322290e+00 5.436950257968416800e+00 5.432119252675288834e+00 5.433046920603697316e+00 1.084594408537652210e+00 5.430402491805533138e+00 5.437561647340686477e+00 5.429206782984006274e+00 1.087976455877141646e+00 3.259292341078382726e+00 3.263773683253356594e+00 1.087640551471993788e+00 3.261392650801307358e+00 7.616433751682254893e+00 1.085107687091878104e+00 7.608322912027682960e+00 3.264974476566885109e+00 1.089521635345822137e+00 7.605674411990515971e+00 7.606704107317970198e+00 5.436949762183417079e+00 3.262332162317721274e+00 3.265384187630065771e+00 5.434878756687504975e+00 3.265644984818180330e+00 7.607949093258518758e+00 5.434887187556508792e+00 7.612015176322309173e+00 3.264120932916509066e+00 5.428124265285529937e+00 7.612677839654600653e+00 7.606799016268011471e+00 1.684689305741932054e-03 2.579941141136198090e-04 8.693779335427713306e+00 8.687365403621891247e+00 9.816661911323229517e-03 4.345094626148567230e+00 8.687995867033167841e+00 4.342386349148374514e+00 1.267102269558028011e-03 8.688746541377497579e+00 4.349650037388573587e+00 4.344494038461302665e+00 4.343255071568757231e+00 6.189711470725930975e-03 8.689263948546726013e+00 4.345875485392910242e+00 6.322712640784504748e-03 4.350795669916077912e+00 4.341885533910153860e+00 4.349069668692317592e+00 8.694930229504221231e+00 4.350029410160739296e+00 4.347972641325834608e+00 4.340308962702459361e+00 7.075997203116247448e-05 2.176044055719323023e+00 2.179979147838056353e+00 9.304623264097727558e-04 2.174227028230523384e+00 6.525960043778012754e+00 1.032480622454701397e-03 6.518388173902678773e+00 2.169033284949235973e+00 2.635396249160620440e-03 6.516168057745701070e+00 6.511168209653499517e+00 4.345376608493691784e+00 2.175412513999045228e+00 2.174815493339782080e+00 4.349480449034498264e+00 2.185589753946527214e+00 6.519088799518987010e+00 4.342623893809478552e+00 6.513124335463360559e+00 2.162622868466412829e+00 4.353227876603147806e+00 6.527285032467596615e+00 6.520443848067583481e+00 2.174464063760627841e+00 3.533181064556002293e-03 2.169546153543461475e+00 2.169018496434229171e+00 4.298571762893078733e-03 6.531185267478313961e+00 2.175710240409176599e+00 4.347216785459501409e+00 2.172377620321709113e+00 2.185330018556412845e+00 4.349765433041624441e+00 6.517475729952276531e+00 6.522431922068459897e+00 7.354425792238867762e-03 2.181381683292674012e+00 6.527232202165573760e+00 8.689149587211675296e+00 6.519043280009966246e+00 6.531806002286588253e+00 4.341987123270198090e+00 2.171609445560370055e+00 6.516698813522935119e+00 4.352311662096745692e+00 6.515374829007351209e+00 2.174832108405789999e+00 2.171778941730444945e+00 4.002374501762633291e-05 2.179546733217866183e+00 2.178117521631236730e+00 4.337608965977270081e+00 2.172188217111625352e+00 6.522158027791339130e+00 2.326881193024751392e-03 2.173689758070286526e+00 6.513767766592644115e+00 4.346502268685187076e+00 6.515457086037387491e+00 2.173334083175129550e+00 1.219557122537089436e-03 6.519095489105989571e+00 2.170804338059015848e+00 4.345241280539631212e+00 6.510053477703008795e+00 6.527145059234535474e+00 6.976167603072282782e-05 6.533502465552334826e+00 6.523959234170131793e+00 4.345996169306964418e+00
3.257544034735612826e+00 1.082377070633675498e+00 3.262015080695581659e+00 3.264175062047533160e+00 1.093473102879562342e+00 7.609768593476319509e+00 3.254490629001268065e+00 5.430868657138738342e+00 3.260989114639130104e+00 3.252917271732575166e+00 5.437237719306542871e+00 7.613734119431065039e+00 7.606138254526721099e+00 1.094333875861941419e+00 3.251607368481998162e+00 7.610044224818440561e+00 1.080568094779878807e+00 7.602974754020326742e+00 7.605645489000504078e+00 5.436572566436249865e+00 3.263859552436394029e+00 7.613364038097903297e+00 5.445646215420246961e+00 7.603054342838362345e+00 3.250822310847652385e+00 3.250852881924665816e+00 1.092635132919193230e+00 3.263806949927371193e+00 3.260517639139922430e+00 5.425719769311470486e+00 3.256011838684938375e+00 7.605787327251565699e+00 1.088602889445417610e+00 3.264606186207722693e+00 7.604714341614093875e+00 5.432503338486458055e+00 7.605846284182591788e+00 3.261459345542336852e+00 1.091090567267512856e+00 7.606735930500984288e+00 3.262164444256647755e+00 5.431781822912141067e+00 7.611249515316971248e+00 7.607727188609420210e+00 1.084572262370642415e+00 7.617971016235932424e+00 7.608431953149731086e+00 5.437183940501519430e+00 1.088312805740289768e+00 1.093936871590766691e+00 1.091826450126837100e+00 1.082639170370791160e+00 1.095764371964571549e+00 5.441380734567368371e+00 1.084993789460828140e+00 5.435139154449618815e+00 1.093450251111552030e+00 1.082240939291615689e+00 5.442976238571070269e+00 5.441266317577317935e+00 5.436087316814036896e+00 1.079602435977453867e+00 1.081930865674479048e+00 5.436000679178999206e+00 1.094103060164839825e+00 5.434700389387425723e+00 5.434489272362332812e+00 5.428618067667747127e+00 1.086699862063579491e+00 5.429031645538929141e+00 5.441091687013240197e+00 5.427177832376113287e+00 1.088451154240350771e+00 3.261000015465134627e+00 3.268080071490252703e+00 1.088823642901514566e+00 3.262709754674887996e+00 7.615728517310944135e+00 1.080451349047827581e+00 7.613039644300760855e+00 3.263639153040296836e+00 1.093509606906578391e+00 7.601895502115852743e+00 7.604505473343001754e+00 5.439792743743668169e+00 3.260332415091840907e+00 3.262336556070723592e+00 5.437037811980455437e+00 3.264527112226687677e+00 7.603298771470470285e+00 5.436748269185327942e+00 7.615663902947915176e+00 3.259465439113458984e+00 5.431816943758155602e+00 7.609626644838257015e+00 7.608119688532593905e+00 8.692107660676978043e+00 6.372115966806261161e-03 8.074696663556073066e-04 8.692899835887326176e+00 6.449826373840484260e-03 4.345864844816905048e+00 8.683113114997018656e+00 4.347287243336532825e+00 8.692784458828276328e+00 8.683282699204093902e+00 4.348938660680259360e+00 4.349816465944646104e+00 4.343949053316062958e+00 5.550590667444463625e-03 8.694511599096037102e+00 4.351832114109533300e+00 4.589406259021161158e-03 4.357400973026986257e+00 4.337201121754089783e+00 4.344501941029306202e+00 8.691289479615619484e+00 4.347959805932829269e+00 4.354102502713534051e+00 4.342218335452299627e+00 8.693745761975700148e+00 2.177705726460055224e+00 2.180084631135102757e+00 8.694692096147115024e+00 2.174332591497570188e+00 6.528711877891224979e+00 8.689601887503874522e+00 6.520600721880652983e+00 2.170870119357044992e+00 5.448538360399520289e-03 6.516603288814892814e+00 6.517113019473117497e+00 4.341701176650071936e+00 2.177888484637136024e+00 2.178066036964214192e+00 4.348921517024251671e+00 2.189615832517300298e+00 6.514403130857923330e+00 4.340178552112401889e+00 6.510917138651389102e+00 2.164877398342405890e+00 4.348482403986059452e+00 6.523497451177928674e+00 6.513548630535547446e+00 2.169216781135316463e+00 2.237773487985508531e-03 2.165508742989683988e+00 2.167464732007545081e+00 8.249498569633053474e-03 6.525601256752855406e+00 2.168575826400034767e+00 4.342038956307221476e+00 2.175975015791292932e+00 2.185515089502493957e+00 4.350089315415766045e+00 6.513874287034690624e+00 6.518429435842696407e+00 7.817110465442630995e-03 2.186969342654134341e+00 6.532092547937714322e+00 8.685408469574026569e+00 6.517871569285451194e+00 6.535042052721013128e+00 4.341798804340115225e+00 2.165773491054800548e+00 6.516224542543725740e+00 4.358706230597561238e+00 6.520976125928818590e+00 2.176822253412665997e+00 2.168449396457978740e+00 8.691481537399702972e+00 2.176233500037406898e+00 2.177282318572868469e+00 4.337217773388097442e+00 2.169304820175355530e+00 6.523370194990873117e+00 7.704796528393170231e-03 2.173900128244379282e+00 6.520787257083735078e+00 4.348773973230187551e+00 6.517669423129362372e+00 2.180348227012219198e+00 5.472720581410170371e-03 6.517567041837317277e+00 2.171090131344141305e+00 4.342717912843520267e+00 6.512192270303950536e+00 6.530581481535048916e+00 5.316703818341460448e-03 6.533762811541450333e+00 6.525194820041676280e+00 4.340232285676425938e+00