1.138800000000000079e-08 -2.037488999999999882e-06 5.724849999999999915e-06 -8.280000000000000359e-10 -1.994884000000000143e-06 -5.723670000000000377e-06 -6.541999999999999950e-09 2.035485999999999861e-06 5.636121000000000074e-06 -4.625000000000000055e-09 1.996984000000000089e-06 -5.637785000000000267e-06 -9.062000000000000346e-09 -1.990018999999999894e-06 5.653903000000000067e-06 -1.530999999999999986e-09 -1.958288999999999861e-06 -5.655379000000000153e-06 3.235000000000000099e-09 1.992263000000000004e-06 5.570913000000000037e-06 7.492000000000000185e-09 1.955965999999999900e-06 -5.569467999999999748e-06 -1.391900000000000043e-08 1.490258000000000056e-06 -1.028435600000000064e-05 3.200000000000000117e-09 1.404462000000000073e-06 1.028551799999999926e-05 -1.891000000000000191e-09 -1.491464000000000100e-06 -1.024566100000000084e-05 1.294199999999999936e-08 -1.403073000000000060e-06 1.024399599999999956e-05 1.469100000000000066e-08 1.443664999999999924e-06 -1.023582900000000049e-05 -3.962000000000000174e-09 1.358412999999999923e-06 1.023437400000000035e-05 1.074999999999999907e-09 -1.442729999999999949e-06 -1.020034799999999919e-05 -1.167999999999999937e-08 -1.359283000000000010e-06 1.020182700000000000e-05 -5.502800000000000147e-08 -1.976636999999999808e-06 -1.024062700000000037e-05 9.879000000000000317e-09 -2.002501000000000125e-06 1.024647699999999964e-05 -1.229100000000000067e-08 1.983273999999999843e-06 -1.024788700000000003e-05 5.990500000000000603e-08 1.996135999999999975e-06 1.024233800000000080e-05 6.041800000000000540e-08 -1.996409000000000099e-06 -1.023678000000000027e-05 -1.522700000000000129e-08 -2.005123999999999896e-06 1.023056600000000026e-05 6.945000000000000316e-09 1.989385000000000181e-06 -1.024090000000000049e-05 -5.505499999999999900e-08 2.010964000000000166e-06 1.024633499999999954e-05 -4.041899999999999949e-08 1.424170999999999895e-06 5.626083000000000391e-06 -1.780000000000000057e-09 1.435579999999999942e-06 -5.632618000000000152e-06 -6.689000000000000373e-09 -1.433852000000000100e-06 5.651895999999999935e-06 4.944300000000000142e-08 -1.425545999999999946e-06 -5.645047999999999794e-06 5.226399999999999736e-08 1.418653000000000044e-06 5.650313999999999889e-06 -1.008200000000000055e-08 1.418765999999999987e-06 -5.644145999999999883e-06 -5.119999999999999690e-09 -1.409542999999999932e-06 5.658444000000000266e-06 -3.714299999999999716e-08 -1.428906999999999972e-06 -5.665439000000000019e-06 -7.797999999999999748e-09 -2.829162000000000171e-06 -1.321247099999999996e-05 -6.664999999999999628e-09 -2.811475999999999863e-06 1.321377699999999917e-05 8.493000000000000347e-09 2.830289999999999968e-06 -1.317008400000000074e-05 7.336999999999999789e-09 2.811567000000000046e-06 1.317052599999999981e-05 8.254000000000000655e-09 -2.885470000000000175e-06 -1.327955100000000001e-05 6.217000000000000348e-09 -2.859271999999999956e-06 1.328051899999999962e-05 -8.881999999999999727e-09 2.886029999999999963e-06 -1.325070399999999930e-05 -6.956000000000000381e-09 2.860329000000000122e-06 1.325242699999999921e-05 -5.962200000000000277e-08 -4.494890000000000090e-07 -3.829740000000000199e-06 8.203000000000000728e-09 -4.920799999999999965e-07 3.828711999999999774e-06 -1.895000000000000177e-09 4.488720000000000241e-07 -3.847657000000000319e-06 5.467999999999999729e-08 4.914999999999999741e-07 3.846981999999999686e-06 6.011699999999999496e-08 -4.666400000000000016e-07 -3.800271999999999925e-06 -8.754999999999999649e-09 -4.950850000000000422e-07 3.799574999999999955e-06 1.544999999999999938e-09 4.661340000000000102e-07 -3.826063000000000132e-06 -5.427299999999999901e-08 4.946139999999999581e-07 3.825197999999999760e-06 -2.804000000000000161e-08 -2.905014999999999917e-06 -3.781740999999999797e-06 3.881100000000000256e-08 -2.839817999999999972e-06 3.781314999999999896e-06 -4.526899999999999991e-08 2.905738000000000181e-06 -3.870089000000000344e-06 3.564299999999999696e-08 2.840496999999999869e-06 3.868908999999999959e-06 2.781899999999999916e-08 -2.846616999999999820e-06 -3.783745000000000057e-06 -3.867600000000000169e-08 -2.793927999999999976e-06 3.782482000000000134e-06 4.542200000000000135e-08 2.847581000000000172e-06 -3.868157999999999769e-06 -3.571000000000000014e-08 2.794399999999999876e-06 3.867758999999999978e-06 -4.051199999999999907e-08 -4.242589999999999876e-07 -1.329187999999999919e-05 -1.097699999999999963e-08 -5.124210000000000063e-07 1.329317299999999952e-05 1.551699999999999925e-08 4.242919999999999985e-07 -1.322686499999999961e-05 3.711700000000000076e-08 5.113970000000000099e-07 1.322774299999999971e-05 4.030900000000000049e-08 -4.414480000000000232e-07 -1.322339699999999960e-05 1.123799999999999945e-08 -5.255149999999999779e-07 1.322446699999999991e-05 -1.545599999999999957e-08 4.402890000000000060e-07 -1.317069599999999984e-05 -3.723599999999999673e-08 5.254890000000000013e-07 1.317154000000000027e-05
-1.599185014799999957e-02 -3.560344819999999985e-04 -1.801962943400000142e-02 1.563091469000000037e-03 -3.777453874000000038e-03 -2.074786253899999974e-02 2.757623324999999848e-03 -5.783597562000000053e-03 2.940114750000000004e-04 -5.540866422000000242e-03 2.835868418500000002e-02 -1.100093367599999997e-02 -3.021188561100000142e-02 -1.244838828000000008e-03 2.354519704000000019e-02 1.007459088300000083e-02 -7.391753588000000291e-03 -4.553642352999999997e-03 -7.033286540000000149e-04 2.503563034700000134e-02 -1.894275375200000014e-02 -1.939271785999999902e-03 -8.097574935000000779e-03 2.185897584100000152e-02 -2.670702154399999875e-02 1.508883910700000060e-02 -3.577860746000000036e-03 -8.313798218999999406e-03 1.745369495099999974e-02 -4.548226524999999902e-03 -2.509486417900000030e-02 -2.486617833400000047e-02 5.359339188000000406e-03 -5.051035879999999680e-03 2.142312949699999927e-02 -1.028894237399999995e-02 1.188569993999999928e-03 -1.870220106099999835e-02 -7.780961698000000114e-03 -1.025648454799999928e-02 -1.456896112600000043e-02 3.205252187700000088e-02 -9.961824500000000424e-05 3.543150300000000275e-05 1.097109343800000032e-02 -1.691323356500000138e-02 -1.308903574300000067e-02 -3.440318981099999701e-02 1.165693206600000066e-02 -9.859173121000000539e-03 1.717673672100000076e-02 1.659996381599999904e-02 -8.761707437999999640e-03 -1.905882736499999938e-02 5.225811416000000417e-03 -2.157973402300000093e-02 -1.017418493999999946e-03 9.025355864999999242e-03 1.360154958400000037e-02 -8.281641713000000363e-03 -8.775559890999999960e-03 1.299964348200000064e-02 -1.639641001099999967e-02 2.172798004000000074e-03 -2.100365585000000049e-02 2.091951819000000077e-03 1.884422020800000097e-02 1.113408330199999914e-02 1.072270042000000000e-02 9.813505999999999889e-05 1.043660580400000010e-02 8.315912555000000775e-03 1.033940197900000066e-02 -2.833027248300000120e-02 -1.343804571599999977e-02 -9.355399605000000104e-03 -1.033987757899999978e-02 -2.246458280399999882e-02 -1.330105484000000064e-03 9.415700432999999508e-03 -1.394102085000000022e-03 1.865733349800000052e-02 -1.378461060400000028e-02 1.095027743599999957e-02 -3.258428504999999996e-03 2.379148585100000074e-02 2.336969545600000100e-02 6.838211339000000236e-03 2.355565480999999815e-03 1.206401843900000055e-02 1.432107302800000002e-02 1.713036147099999962e-02 -1.255552236600000066e-02 1.408930618999999990e-03 4.641752366000000130e-03 -8.395391904000000169e-03 -2.025916459599999900e-02 4.869960516999999670e-03 -2.006035785499999877e-02 2.541405188899999862e-02 -1.506960885399999915e-02 2.025435356999999784e-03 -1.031254597299999937e-02 3.477176841699999854e-02 6.712256558999999713e-03 9.864818990000000839e-04 -4.802172765999999926e-03 4.992977533999999606e-03 2.386455851499999850e-02 9.697565598000000217e-03 -8.363535385999999391e-03 4.446992930000000059e-03 -1.804070515999999999e-02 2.233129000099999886e-02 -2.254881544199999893e-02 -3.687040625000000040e-03 2.969136862999999845e-03 1.775872962500000055e-02 -3.183952829399999684e-02 -2.988198871499999840e-02 1.400323565799999927e-02 3.935120441900000210e-02 -1.494394796599999957e-02 -2.147930215300000029e-02 3.024895373899999865e-02 -7.002720304000000125e-03 -3.814080176600000149e-02 -2.920545017000000017e-03 2.762477755000000007e-02 1.477476854000000020e-02 3.140519712999999789e-03 8.505703257999999711e-03 8.424681923999999614e-03 2.188064275000000183e-03 7.488069059000000173e-03 -4.357221841999999769e-03 -2.208054674999999911e-02 9.106105511000000749e-03 1.998612948599999897e-02 5.372063883000000213e-03 -1.585755912899999842e-02 -2.210198197899999883e-02 -2.010314048000000006e-02 1.268296667900000070e-02 1.613942115999999908e-03 1.135326542200000045e-02 9.746044189999999606e-04 1.139234977000000036e-03 -1.271627917099999935e-02 1.006594878199999939e-02 6.873006337999999597e-03 -1.356555988600000040e-02 -1.908331012499999910e-02 2.434637464399999965e-02 -1.235755403999999960e-03 1.259322137899999972e-02 2.835704427000000118e-03 -2.457848424700000145e-02 2.307211434800000155e-02 -2.494114774499999951e-02 2.699568043699999975e-02 2.418975197499999980e-02 -9.888201685000000407e-03 8.946915333999999262e-03 2.286757290000000027e-04 2.573935870200000017e-02 -1.024190542899999952e-02 -2.447574638700000110e-02 1.238422332500000063e-02 -5.489185502000000320e-03 2.075852573899999998e-02 -2.694706607099999970e-02 1.165468191199999989e-02 1.144123532699999925e-02 1.416956967100000027e-02 -4.336100810000000192e-04 -3.457068505099999967e-02 -1.799167978199999948e-02 1.093165251599999971e-02 3.485323801100000118e-02 4.422793086000000040e-03 5.971665090000000207e-04 1.583744703899999870e-02 8.298192682999999681e-03 -2.619830989000000027e-03 -3.349693521799999851e-02 2.841774883999999973e-03 -1.035992963400000043e-02 1.210094382699999915e-02 2.341483343599999947e-02 -1.701131137999999923e-03 -4.724125150999999856e-03
2.758865976000000105e-03 6.739186938199999422e-02 -1.500273411499999932e-02 1.117509706230000038e-01 6.323195220299999975e-02 -7.656486709999999873e-04 7.902732361400000016e-02 -4.540138394399999971e-02 2.865092782999999893e-02 -2.539589508699999915e-02 5.753381542699999990e-02 -7.732072256100000485e-02 -3.094095163199999873e-02 4.005374652899999777e-02 -2.089783871100000037e-02 2.688093062000000092e-03 -5.034792745100000189e-02 1.021897452759999991e-01 -3.804111326199999948e-02 -2.781978979000000046e-03 -3.109910924600000140e-02 -1.553953594500000028e-02 3.859002837600000041e-02 2.432444483700000118e-02 -1.058853585199999968e-02 -4.523127002900000082e-02 -3.039274096899999972e-02 5.762079855100000342e-02 7.773547040299999544e-02 5.771336953799999919e-02 5.460848430700000061e-02 -2.546047355699999903e-02 -4.615306492999999774e-03 -6.053414788300000293e-02 -1.161239924100000015e-02 -2.695440531799999859e-02 3.595969257500000044e-02 8.939341298200000063e-02 1.586847366299999965e-02 2.845018012499999846e-02 3.369907479800000188e-02 -1.484476086999999937e-02 1.830613011100000118e-02 -2.173479293299999948e-02 2.269900878000000004e-03 -2.677748023699999882e-02 1.744590085999999946e-03 1.190850111199999971e-02 -7.666285084399999950e-02 4.029973333600000290e-02 5.221576008300000266e-02 2.839791306000000008e-03 1.419500308000000042e-03 -9.157190620000000073e-03 -8.454208120700000550e-02 -2.843602096999999981e-02 5.759087102100000216e-02 -1.773813913099999903e-02 -8.004280141800000636e-02 -3.785710177000000017e-03 -9.396104998700000044e-02 -3.179731111499999735e-02 4.118903652599999882e-02 -7.042435557499999998e-02 1.837532717999999961e-03 -5.243564355600000004e-02 -1.550470620399999923e-02 6.333492502999999753e-03 -5.464031994400000286e-02 -5.653851159099999857e-02 1.207272464099999956e-02 -6.582578960999999583e-03 -4.726733940399999861e-02 -5.337895097099999708e-02 -6.015177475399999946e-02 1.417348683800000002e-02 -4.588068135799999725e-02 -2.103054658700000135e-02 -1.971751043100000017e-02 -9.487281761999999743e-03 -8.061184447800000263e-02 -3.026202838500000047e-02 2.899207026600000153e-02 6.793228043000000375e-03 5.684809640099999783e-02 1.256012443550000024e-01 -5.317069625999999889e-03 -6.512393624600000541e-02 6.958697612599999693e-02 -9.509050835999999923e-03 3.211691066999999844e-02 -2.279773331999999930e-02 -2.604378444400000034e-02 -1.956937619399999953e-02 7.151432829999999604e-04 3.594504752399999697e-02 -6.294910437799999814e-02 8.017726235500000076e-02 -7.342894513700000403e-02 6.079031474299999988e-02 -3.191621940799999751e-02 5.725063984999999821e-03 5.345918100299999753e-02 2.718291333400000079e-02 2.121526224999999849e-03 8.291196171799999903e-02 -4.482510622199999822e-02 7.114379406800000472e-02 -5.228890130000000275e-03 3.239400286900000203e-02 4.014074349999999930e-02 2.719307184299999888e-02 5.458851758600000159e-02 6.279490790500000252e-02 7.562698786999999534e-02 -3.266235913499999921e-02 2.210136541000000052e-02 -2.843836542700000150e-02 -3.787301426999999891e-03 -2.618223762500000024e-02 5.030944344700000181e-02 -5.343815659699999859e-02 6.128403994199999733e-02 5.190539587700000040e-02 3.471224696999999915e-02 -1.484902947400000041e-02 5.205530119699999791e-02 6.554018858900000077e-02 8.479598200999999280e-03 -3.345154599300000087e-02 -1.157950092899999971e-02 1.758869205200000105e-02 2.860391480399999964e-02 -7.815148472800000079e-02 -6.329938964799999845e-02 -7.462944610999999728e-02 -9.427444458400000005e-02 -2.909039198900000012e-02 2.131975421700000109e-02 4.020214958099999764e-02 3.870369870899999926e-02 -2.853390859500000085e-02 -9.788150170100000380e-02 2.464017764299999969e-02 -6.864686553500000399e-02 -7.728454145599999991e-02 7.108179386099999775e-02 -1.039660033199999931e-02 -6.047767061599999827e-02 -5.895338025400000126e-02 -6.900255711500000166e-02 4.309486325200000134e-02 -5.709410441999999974e-02 -4.790541338300000063e-02 3.134253257300000095e-02 1.954365862500000162e-02 -1.147610649900000085e-02 5.914427205000000361e-03 1.566058192400000132e-02 7.678261721100000659e-02 1.647052316299999972e-02 3.568077138399999848e-02 -4.839499936100000177e-02 -8.103133574099999348e-02 7.994813027199999811e-02 1.247834149700000062e-02 -3.734235275399999665e-02 7.778977406600000311e-02 2.924723247700000001e-02 7.221620840499999583e-02 -1.360175285200000000e-02 -5.253413831400000067e-02 -4.717032104899999967e-02 -5.437415826999999861e-03 9.129414635999999472e-02 -2.552000988700000098e-02 -3.935694766700000014e-02 4.538851605600000005e-02 1.371438596260000087e-01 6.271038992300000114e-02 9.308649883500000333e-02 -7.612645013900000424e-02 -3.767547369399999735e-02 -2.716483738199999831e-02 -8.326348650100000304e-02 -8.445457642199999393e-02 4.671644018200000331e-02 -1.451684928999999935e-03 -8.724357692999999692e-03 -2.243561984699999831e-02 1.536286161800000036e-02 -9.049123038799999907e-02
6.709135885200000204e-02 6.986156451000000156e-02 -1.239260163439999951e-01 1.723284447729999946e-01 -1.007698279200000026e-02 -1.104754847690000014e-01 1.175342237230000003e-01 -5.898024278100000295e-02 -8.283596337699999923e-02 8.436731343999999411e-02 6.386346620100000204e-02 -1.577221889390000020e-01 -1.044099662610000062e-01 -5.894759758399999855e-02 7.923199017199999972e-02 2.409478472600000074e-02 -4.372014670999999943e-03 1.560122183010000108e-01 1.330278030599999980e-02 4.723787101699999935e-02 2.702391039999999900e-04 -9.933548058999999708e-03 -5.930742888900000093e-02 7.118049013299999894e-02 7.056322766299999438e-02 -4.083253067000000396e-03 -5.881247480599999938e-02 9.873389156999999583e-02 2.454636567000000047e-02 9.232489585500000540e-02 5.241515439600000215e-02 8.322405417000000583e-02 9.569117155999999624e-03 -4.297573247500000027e-02 5.807204861600000212e-02 -4.154803825999999617e-03 9.403066542500000680e-02 -5.626782542400000225e-02 -2.590889349099999989e-02 2.636623657200000068e-02 6.370585445000000180e-02 1.377389063499999920e-02 -8.274544939399999799e-02 -5.997379732000000102e-02 1.849420646799999901e-02 -1.136100228439999998e-01 6.791199873000000609e-02 -2.865179135699999838e-02 -7.445050575299999585e-02 1.648246540999999919e-03 3.806909012500000328e-02 9.717936377899999423e-02 -6.415411980400000103e-02 -3.984322119000000169e-03 3.958163921099999705e-02 4.564633946300000050e-02 -7.230596609000000327e-03 -6.792482546899999973e-02 -1.553075007520000050e-01 -8.583210834700000236e-02 -2.023746006549999865e-01 2.002979750000000040e-04 -8.976361106000000853e-03 1.639041386500000169e-02 -9.009532305299999821e-02 8.397890487900000478e-02 -2.764394141000000183e-03 4.329338068000000012e-02 -2.910036114400000110e-02 8.203800642000000712e-03 1.379950842509999887e-01 -1.985037602000000109e-02 -6.990211054099999821e-02 3.412111063400000144e-02 -1.180714277760000069e-01 -2.203791444399999869e-02 6.898796715299999882e-02 -1.181871811709999942e-01 -3.620785117499999983e-02 4.714705473300000171e-02 -4.052904729699999958e-02 -1.318419003800000086e-02 -2.835340396499999929e-02 1.469365712599999922e-02 -8.623437382000000498e-03 -2.751905958300000093e-02 -1.000395003489999990e-01 -5.671780822400000061e-02 7.078412060199999745e-02 6.365666769500000211e-02 8.987792922899999482e-02 -6.031688775599999830e-02 -5.910561866800000119e-02 9.114255119999999447e-03 -3.326355059200000047e-02 -9.929258460000000598e-04 1.146058670199999983e-02 9.762452288100000042e-02 -5.812502034400000156e-02 1.267335245120000120e-01 -5.136890258099999912e-02 -2.333898788999999932e-02 5.785117733100000187e-02 9.903280311499999822e-02 -8.119743436500000133e-02 1.441970323439999979e-01 -3.276318783000000193e-03 1.794755425599999996e-02 4.843297295800000346e-02 2.277423047000000020e-02 1.941915004460000038e-01 -9.927520835299999402e-02 -3.248168734600000163e-02 4.145704316499999875e-02 7.216192517000000195e-02 -9.805994776599999407e-02 -1.526538411900000072e-02 -8.138527952900000140e-02 7.427412660899999908e-02 -5.514183811000000421e-03 1.612308355969999940e-01 -2.968565194999999921e-03 -4.905776607100000020e-02 1.188566992200000040e-02 4.288553680800000212e-02 -6.112335777700000222e-02 -5.726881482599999879e-02 -2.484085974900000077e-02 3.280699148900000084e-02 5.813058034799999801e-02 8.182382404499999318e-02 1.377773608320000120e-01 1.513114476450000134e-01 -9.018304865199999742e-02 4.459769663000000099e-03 -1.516105849449999876e-01 -1.368549335850000048e-01 -5.636365315300000123e-02 4.958544464899999893e-02 1.003927796669999983e-01 1.300590888819999902e-01 -2.959322433699999866e-02 -2.080160550250000073e-01 8.005675444000000252e-02 2.833589059799999921e-02 -4.391765263700000282e-02 2.744364833800000056e-02 -5.806364083200000331e-02 7.687617265099999653e-02 -1.933842632020000007e-01 -1.910567524110000082e-01 7.348655056300000543e-02 -7.510039716000000212e-03 -9.428070682799999380e-02 -3.945636656999999825e-02 1.503501244110000135e-01 -1.350086189000000020e-03 -7.103200819600000160e-02 -3.843015632699999656e-02 -3.596990185900000164e-02 1.009997850290000054e-01 -9.909214262099999559e-02 -1.562793906269999977e-01 3.861161386300000081e-02 1.048647529439999948e-01 6.244283214600000048e-02 -1.134395823510000040e-01 1.378579517300000112e-01 -6.794930675400000231e-02 1.035336695650000000e-01 1.100002021219999987e-01 -1.445737484090000025e-01 -1.166361421290000033e-01 1.506991040369999868e-01 -1.161173127599999938e-01 -1.377250724990000119e-01 7.538522518000000290e-03 -5.798265040000000203e-04 1.364306032360000087e-01 6.870083416399999643e-02 6.577138800600000612e-02 -1.051659543300000055e-02 -8.440150741299999593e-02 6.157788011800000016e-02 2.405586454799999926e-02 -8.292345519100000062e-02 1.132800401739999935e-01 -1.266298118499999993e-02 7.784436407299999416e-02 -1.123485694920000055e-01 -3.659320072999999729e-02 -7.519613979500000545e-02
5.045948628799999669e-02 1.044382196440000049e-01 -1.414472468309999897e-01 3.095303836300000028e-02 5.625339177000000107e-02 -4.500392442900000289e-02 1.372160437449999881e-01 -6.037739160299999963e-02 -1.585298084560000098e-01 1.700828829250000118e-01 4.166467245399999714e-02 -2.219413692799999949e-02 -6.776974877199999636e-02 2.597661484400000040e-02 1.427910302279999932e-01 1.674036790599999977e-02 1.015419978830000014e-01 1.636449293929999882e-01 1.114759964809999976e-01 -4.875295538300000037e-02 -1.190825047249999963e-01 -1.373042396589999881e-01 -1.246101983620000048e-01 9.681705950999999755e-03 1.659802526140000123e-01 1.169023419280000031e-01 -2.783094284600000010e-02 1.047852000040000037e-01 -3.570149755399999736e-02 5.757523902699999974e-02 2.595551579199999875e-02 5.067533930299999989e-02 -5.694929120500000219e-02 -1.188522560220000024e-01 7.103513312699999416e-02 1.017996085160000064e-01 2.546828930600000124e-02 -1.710838605739999907e-01 -8.002929952100000521e-02 8.476394225199999910e-02 -7.004214552000000323e-03 -2.380373341999999798e-03 -4.215853394400000120e-02 1.192665620340000038e-01 -3.043130237299999930e-02 -4.119591675300000172e-02 4.356904180400000132e-02 -1.801288895410000090e-01 -1.285159055010000051e-01 -5.215193149700000225e-02 -2.434904594699999897e-02 2.560530231600000040e-02 -4.106080519999999782e-04 -1.075579832770000022e-01 -5.695255144900000094e-02 -3.726138512000000055e-03 -7.439378103400000330e-02 3.390664812699999836e-02 -3.263859965670000141e-01 -1.312493741419999971e-01 -1.109606493140000011e-01 1.051172583450000059e-01 8.028357383100000189e-02 -4.200912532500000046e-02 -9.163737841100000336e-02 9.038103385999999781e-03 4.974435645300000208e-02 -1.260298819729999964e-01 1.929055798300000069e-02 1.270106540790000016e-01 2.911698853400000037e-02 1.138735333000000065e-02 -7.070667019100000672e-02 1.439563575789999939e-01 -7.084546850400000317e-02 2.698803312099999976e-02 3.847217968399999771e-02 -2.040423176249999970e-01 -1.904203872699999911e-02 6.786815456700000249e-02 -1.337468049149999894e-01 -1.083912267249999978e-01 3.653152640699999787e-02 8.276649056200000021e-02 -1.521836195599999934e-02 -6.631623817399999454e-02 -2.238850389479999925e-01 -4.168655914200000007e-02 3.143569313999999837e-02 4.293373746600000207e-02 -3.857941702099999814e-02 -1.068968819300000067e-01 -1.022953520969999974e-01 1.082491802529999964e-01 2.265398174799999886e-02 1.051390469599999995e-02 -4.871730009400000033e-02 -5.029350643700000040e-02 4.700369197399999893e-02 2.245525593409999909e-01 -1.546715408390000046e-01 9.927513997299999837e-02 1.318350531709999995e-01 1.821050229939999987e-01 -3.264642049500000170e-02 1.701583567340000103e-01 -3.330192050499999890e-02 1.275718268730000049e-01 3.928403127800000200e-02 -9.768289700299999379e-02 1.057810595659999936e-01 3.942672423699999928e-02 -1.165174616759999948e-01 7.639107233999999948e-03 3.772176291200000225e-02 -6.120537036700000183e-02 2.154952084799999917e-02 -5.777834644500000338e-02 1.130987766749999984e-01 7.365010058700000029e-02 5.719715796699999938e-02 -1.156743814099999920e-02 -1.819125139730000118e-01 -4.533945921399999690e-02 9.835466561300000576e-02 -7.013638816900000239e-02 -1.051962221399999932e-02 5.147255582199999902e-02 1.348244298730000013e-01 1.336932701600000023e-02 1.794494619939999980e-01 2.797165690919999892e-01 8.199196413300000041e-02 -7.546362362099999499e-02 1.244050582399999945e-02 -5.447007002100000272e-02 -1.794458174959999985e-01 -9.242372295999999252e-03 1.046364717559999935e-01 2.418988262229999908e-01 3.227360392360000274e-01 -1.799837551809999880e-01 -9.567080187500000277e-02 -2.068309112800000016e-02 -1.417839253199999934e-02 -1.296318992100000123e-01 1.563334323230000100e-01 1.319795272440000000e-01 -8.561934916999999756e-02 -2.811569360699999742e-01 -1.128699868429999947e-01 -5.077802509599999709e-02 6.276373182800000505e-02 -3.198881773380000126e-01 -2.449038141399999952e-02 7.368933145900000148e-02 -2.306919763700000098e-02 -1.758573334759999940e-01 -1.955309703550000000e-01 -1.473879656510000136e-01 1.079250606569999993e-01 3.317496190799999745e-02 -2.846175434570000218e-01 1.825242348099999912e-01 7.467132413999999496e-02 6.804665289800000683e-02 1.309220340999999940e-02 1.155690753009999960e-01 -4.586871790500000184e-02 6.220467083899999805e-02 2.129854107299999910e-02 -1.261400831570000103e-01 -1.107511437559999951e-01 2.646460608469999864e-01 -3.368523436100000212e-02 -4.963625289500000343e-02 -7.617988007699999509e-02 -5.561225090999999572e-03 2.403381925089999871e-01 5.857923040799999786e-02 1.512317659999999897e-01 -3.368234000999999894e-03 -8.541487777100000012e-02 8.451755198700000582e-02 7.602752717999999854e-02 5.660100560700000172e-02 2.011712013810000033e-01 -4.794201442300000116e-02 -2.781446306499999951e-02 -2.830870204379999922e-01 2.001353102400000097e-02 3.586987974200000345e-02
1.058704317710000009e-01 4.139698457200000070e-02 -6.227367423900000143e-02 -1.143084041800000034e-02 -3.618635702100000268e-02 -1.640666754139999961e-01 5.351183555999999841e-02 3.821859055400000232e-02 -7.510816634399999914e-02 2.138785368109999974e-01 -2.580118060099999971e-02 -1.335702342160000056e-01 3.764838967999999814e-02 -1.016664290740000032e-01 2.638406448760000078e-01 -1.078176874239999972e-01 1.870065090390000129e-01 2.190891164940000080e-01 6.511359375299999308e-02 -7.616858482400000463e-02 -1.839794672989999991e-01 -2.903354005920000258e-01 -1.558874339209999904e-01 1.663556771359999964e-01 2.085601823849999870e-01 1.897954106199999935e-01 -1.262481656689999898e-01 -1.985969037999999950e-02 1.339478411199999941e-01 -1.240829121000000101e-03 8.439176058199999997e-02 9.099599006599999595e-02 -5.908496523899999658e-02 -1.518979619710000006e-01 2.226669080500000009e-01 9.251571950400000466e-02 1.117813775050000014e-01 -8.416912445599999959e-02 -1.677913644169999885e-01 -1.025535057610000023e-01 -2.486427884000000192e-03 1.634001103649999898e-01 -1.613387235669999920e-01 1.750074422110000083e-01 1.149446977159999939e-01 -8.799888641599999672e-02 9.104818299999999434e-03 -2.104101520620000054e-01 -1.345642542899999905e-01 -9.588754875999999649e-02 -1.642878079600000041e-01 8.274393385299999570e-02 -6.724527089699999793e-02 -1.889639708330000112e-01 -1.244770753810000019e-01 -1.151110646699999990e-01 -1.046165599559999992e-01 1.711486969459999896e-01 -3.575275453280000182e-01 -2.438750192290000118e-01 -1.032942634239999991e-01 2.890788526690000193e-01 2.004244465020000032e-01 6.928179381299999495e-02 -1.453263574589999940e-01 8.388795009400000502e-02 -5.593452516499999860e-02 -6.591038928200000646e-02 -9.182968675899999544e-02 1.820805734289999978e-01 -1.997512103500000136e-02 2.053303936999999885e-02 -1.866659578240000006e-01 9.554528064999999459e-02 -7.074494493999999856e-02 1.326237128999999994e-03 7.352622542299999675e-02 -1.878877313110000058e-01 8.062223965699999439e-02 -5.185606789000000300e-02 -1.000737829209999985e-01 -1.744076772489999982e-01 2.821346785609999963e-01 1.910422169260000136e-01 -1.238458596850000037e-01 8.259288111699999990e-02 -1.646055853889999976e-01 -7.772715322699999541e-02 1.127591042320000014e-01 1.547936643870000128e-01 -1.261026782309999927e-01 -2.070988456370000119e-01 3.577507066599999730e-02 -3.636376638999999807e-03 2.254846537900000170e-02 -5.648820737299999756e-02 1.539988937479999931e-01 -1.772597917729999972e-01 -1.864775813699999854e-02 4.121784717299999817e-02 4.860459041700000010e-02 6.226450294299999688e-02 2.803356808949999945e-01 1.009186948389999977e-01 7.133777719499999337e-02 3.050490992400000101e-01 4.532645714599999737e-02 3.161350255800000203e-02 1.854960221400000012e-02 -1.597722557100000051e-01 -3.428876162899999885e-02 -1.173478064849999974e-01 -9.364871947099999427e-02 -1.827571060060000085e-01 1.000883341460000048e-01 -9.602028141000000169e-03 1.448341750480000023e-01 4.672129684799999905e-02 -8.623777890299999527e-02 -2.053789142999999998e-02 9.730407214000000304e-02 3.138302694200000020e-02 -1.296673062619999872e-01 -3.562849438000000035e-02 1.366393024399999989e-01 -1.199881191459999941e-01 1.108056413569999954e-01 4.369345216599999915e-02 1.345407311119999894e-01 -2.683593869999999909e-02 2.272591616569999973e-01 1.504832504020000017e-01 1.404407926769999926e-01 -1.948124827609999943e-01 -5.541589390499999934e-02 3.268833125099999959e-02 -3.246869323380000005e-01 9.659209705000000590e-02 1.483496201989999985e-01 2.447204689739999883e-01 2.626109184950000119e-01 -9.130810477499999578e-02 -1.848785897000000027e-03 2.393960341989999907e-01 6.230532084800000092e-02 -8.796481675799999733e-02 2.342752639929999992e-01 2.260871092900000046e-01 -1.578731825059999927e-01 -1.191366559030000022e-01 -4.259698180200000017e-02 6.992710133000000494e-02 -2.168465015999999999e-03 -3.302455157199999936e-01 -4.391406320300000193e-02 1.340327387320000008e-01 9.276699834700000147e-02 -1.583682505760000137e-01 -4.037705831239999932e-01 -2.445748410649999927e-01 2.090354902590000064e-01 4.222914688099999730e-02 -3.244058437219999869e-01 1.678904205389999960e-01 2.538152124890000194e-01 1.157222102599999997e-01 -6.080093812100000050e-02 -8.684648540799999594e-02 -1.269090266850000093e-01 1.295254049769999916e-01 1.377932589059999990e-01 -7.745579730399999863e-02 -1.078621784240000048e-01 3.042045149200000020e-01 4.525402922999999765e-03 -7.081166326099999631e-02 -1.336939726499999925e-01 -1.032136390920000008e-01 7.640280374400000574e-02 -6.215111067799999889e-02 7.841886110399999554e-02 -2.167023675620000089e-01 -2.202281769449999926e-01 1.325558763620000025e-01 1.039501977739999972e-01 1.188313738890000026e-01 1.800281165990000043e-01 -1.531278105970000081e-01 -1.348284768980000103e-01 -2.715081831200000240e-01 3.199523897099999792e-02 1.558169009829999951e-01