2.753880099648597124e+01 -5.148566228817784053e-09 -3.430325610289164319e-09 -5.148566228817784053e-09 2.753880099641087043e+01 3.693376060844894705e-12 -3.430325610289164319e-09 3.693376060844894705e-12 2.753880099688731420e+01
2.754005243948335391e+01 -2.653090583929024193e-02 4.064761110467470634e-04 -2.653090583929024193e-02 2.754007050660699107e+01 -1.765541941649783481e-02 4.064761110467470634e-04 -1.765541941649783481e-02 2.753997319958511625e+01
2.755033646596567110e+01 -5.057958844443686403e-02 1.361680541145063594e-01 -5.057958844443686403e-02 2.755098099775990406e+01 -1.407651871901429153e-01 1.361680541145063594e-01 -1.407651871901429153e-01 2.755255752437696515e+01
2.756858850957886986e+01 -2.583586209622673602e-01 7.433157224005670916e-02 -2.583586209622673602e-01 2.757556297110757981e+01 8.475664116958335492e-02 7.433157224005670916e-02 8.475664116958335492e-02 2.757143101939971430e+01
2.759328724497958873e+01 -5.626885719241683237e-01 -3.115353153379549472e-03 -5.626885719241683237e-01 2.760469639002212006e+01 1.205744817883995373e-01 -3.115353153379549472e-03 1.205744817883995373e-01 2.759905341312453686e+01
2.763037801302220231e+01 -4.040619699749786742e-01 1.984875959023323921e-01 -4.040619699749786742e-01 2.764363432321655623e+01 -2.663167088968675378e-01 1.984875959023323921e-01 -2.663167088968675378e-01 2.763619122168637787e+01
2.763660690796684705e+01 -4.249121249655516408e-01 -1.429475963747545986e-01 -4.249121249655516408e-01 2.762886580812467585e+01 -6.529231477000388417e-02 -1.429475963747545986e-01 -6.529231477000388417e-02 2.766138765931272303e+01
2.766666333281644086e+01 -2.923679271611564490e-01 -8.642826368276614046e-02 -2.923679271611564490e-01 2.772995510242431649e+01 -2.050305792582083828e-02 -8.642826368276614046e-02 -2.050305792582083828e-02 2.771001544118821869e+01
2.771643311561257406e+01 -2.359733383404196694e-01 -3.078132610458798601e-01 -2.359733383404196694e-01 2.782637033485184119e+01 2.107115266343385085e-01 -3.078132610458798601e-01 2.107115266343385085e-01 2.782712763688267898e+01
2.780674677572865860e+01 -3.761128330931996500e-01 -6.929969909098226966e-01 -3.761128330931996500e-01 2.790450798305844415e+01 7.494256639866977432e-01 -6.929969909098226966e-01 7.494256639866977432e-01 2.788099212952012707e+01
2.790451243531166270e+01 -2.092054640842478386e-01 -1.375851375035820057e-01 -2.092054640842478386e-01 2.804069935502612054e+01 2.652692354236207417e-01 -1.375851375035820057e-01 2.652692354236207417e-01 2.796156416654881482e+01
8.894734954961758433e+01 -4.622280042085861851e+01 -2.872539102808405787e+01 -4.622280042085861851e+01 8.606505537886926049e+01 4.519957031599896169e+01 -2.872539102808405787e+01 4.519957031599896169e+01 9.109474916862687621e+01
8.853069995499224376e+01 -4.543071513402640704e+01 -2.787855041756169427e+01 -4.543071513402640704e+01 8.546730092992589789e+01 4.429384767128961187e+01 -2.787855041756169427e+01 4.429384767128961187e+01 9.050236101631971053e+01
8.781417094700547921e+01 -4.382191837771470233e+01 -2.599653488514910293e+01 -4.382191837771470233e+01 8.415844110287989110e+01 4.229787175316440795e+01 -2.599653488514910293e+01 4.229787175316440795e+01 8.919891297210541836e+01
8.720937578380163302e+01 -4.260821251678495969e+01 -2.458697411421015389e+01 -4.260821251678495969e+01 8.309970417058066516e+01 4.093859120434264298e+01 -2.458697411421015389e+01 4.093859120434264298e+01 8.808574477834956440e+01
8.655244360429243500e+01 -4.164194008388953705e+01 -2.323095816788986312e+01 -4.164194008388953705e+01 8.230363756577099821e+01 3.944513189194356784e+01 -2.323095816788986312e+01 3.944513189194356784e+01 8.707594830248375217e+01
8.572995915252700172e+01 -4.003073928856134245e+01 -2.144722312549536625e+01 -4.003073928856134245e+01 8.126704356967496778e+01 3.743171361890904336e+01 -2.144722312549536625e+01 3.743171361890904336e+01 8.618060993039379980e+01
8.523347282517921997e+01 -3.909233001558852294e+01 -2.087910725192053008e+01 -3.909233001558852294e+01 8.091056894554951384e+01 3.679105844349415833e+01 -2.087910725192053008e+01 3.679105844349415833e+01 8.581901863862040614e+01
8.456219603133486373e+01 -3.792243973025945536e+01 -1.985197831418660996e+01 -3.792243973025945536e+01 8.074949158922962056e+01 3.598053513734538456e+01 -1.985197831418660996e+01 3.598053513734538456e+01 8.568181868113582311e+01
8.437139830302554344e+01 -3.716006276187525259e+01 -1.924339140473823306e+01 -3.716006276187525259e+01 8.031690190640095750e+01 3.544610694048598276e+01 -1.924339140473823306e+01 3.544610694048598276e+01 8.547097900017281802e+01
8.433373036452445604e+01 -3.664779944424958558e+01 -1.907712956423664608e+01 -3.664779944424958558e+01 8.010298874973902628e+01 3.554997511448888758e+01 -1.907712956423664608e+01 3.554997511448888758e+01 8.523191892108938816e+01
8.364542316704435621e+01 -3.522986548618645486e+01 -1.704599086306951605e+01 -3.522986548618645486e+01 7.954776759150320231e+01 3.357563090302429742e+01 -1.704599086306951605e+01 3.357563090302429742e+01 8.444244397305217831e+01
8.434588762622777836e+01 -3.458151443446456597e+01 -2.889543301832333810e+01 -3.458151443446456597e+01 9.122559455530441141e+01 -1.624279906435229037e+01 -2.889543301832333810e+01 -1.624279906435229037e+01 9.182329481510224412e+01
8.402673089618828328e+01 -3.430757326152438225e+01 -2.860868827133475989e+01 -3.430757326152438225e+01 9.107320295638905350e+01 -1.644688308646946595e+01 -2.860868827133475989e+01 -1.644688308646946595e+01 9.164589505782450374e+01
8.348920314567293133e+01 -3.366515155348135124e+01 -2.777699501604987020e+01 -3.366515155348135124e+01 9.066515373200257955e+01 -1.708987969506038951e+01 -2.777699501604987020e+01 -1.708987969506038951e+01 9.125251019390668716e+01
8.295975282252702243e+01 -3.317632117121799951e+01 -2.729396113557120174e+01 -3.317632117121799951e+01 9.046197056795976721e+01 -1.732314805212683240e+01 -2.729396113557120174e+01 -1.732314805212683240e+01 9.079124051254326844e+01
8.233163131663086176e+01 -3.304212994965126882e+01 -2.663933781364183062e+01 -3.304212994965126882e+01 9.033521234513750642e+01 -1.765242545301787302e+01 -2.663933781364183062e+01 -1.765242545301787302e+01 9.036372770660175036e+01
8.194161553016158450e+01 -3.213909453086770895e+01 -2.571701557376789538e+01 -3.213909453086770895e+01 8.994672962810015804e+01 -1.876236377036569891e+01 -2.571701557376789538e+01 -1.876236377036569891e+01 9.019288645898829770e+01
8.127052949187620356e+01 -3.194169369749667098e+01 -2.569260573726970520e+01 -3.194169369749667098e+01 8.985253292982055484e+01 -1.861218373204505383e+01 -2.569260573726970520e+01 -1.861218373204505383e+01 8.998306623026883244e+01
8.036579212448523890e+01 -3.163333449277733678e+01 -2.513410409788360056e+01 -3.163333449277733678e+01 8.970630735326825800e+01 -1.858499229172405265e+01 -2.513410409788360056e+01 -1.858499229172405265e+01 8.995014898204355802e+01
8.034248067340614341e+01 -3.117496820365290233e+01 -2.503584598776767223e+01 -3.117496820365290233e+01 8.948981356917677488e+01 -1.860082765572431285e+01 -2.503584598776767223e+01 -1.860082765572431285e+01 9.011694596311016880e+01
7.987490174944358046e+01 -3.099106162050348345e+01 -2.526622894688502896e+01 -3.099106162050348345e+01 8.943757623791238132e+01 -1.778110008010040488e+01 -2.526622894688502896e+01 -1.778110008010040488e+01 8.985230310664536546e+01
7.933472049079372823e+01 -3.033364677739078274e+01 -2.370767859527769872e+01 -3.033364677739078274e+01 8.927921197484296556e+01 -1.906099604289835270e+01 -2.370767859527769872e+01 -1.906099604289835270e+01 8.946886376941280616e+01
5.617601235181047770e+01 1.153654904612549359e+01 -2.062290581327698646e+01 1.153654904612549359e+01 2.095847202275333387e+01 2.075010516097675861e+01 -2.062290581327698646e+01 2.075010516097675861e+01 5.071764432659978183e+01
5.616935819020940102e+01 1.159785032815554295e+01 -2.062484242154735981e+01 1.159785032815554295e+01 2.084604986170581498e+01 2.051753725411024476e+01 -2.062484242154735981e+01 2.051753725411024476e+01 5.055350024659428954e+01
5.624996868217682078e+01 1.186866866011049915e+01 -2.040752519540732379e+01 1.186866866011049915e+01 2.037079354191015312e+01 1.979253484189799650e+01 -2.040752519540732379e+01 1.979253484189799650e+01 4.999992877109670530e+01
5.630984143521754959e+01 1.173862102149559483e+01 -2.047187689897245022e+01 1.173862102149559483e+01 2.007387372789897739e+01 1.962941214222420427e+01 -2.047187689897245022e+01 1.962941214222420427e+01 4.963320892969329634e+01
5.643561368565897851e+01 1.154193103360018391e+01 -2.068278576099173094e+01 1.154193103360018391e+01 1.982233944013687577e+01 1.924114184886241929e+01 -2.068278576099173094e+01 1.924114184886241929e+01 4.934916210078590382e+01
5.639819771400856752e+01 1.193863612168640920e+01 -2.041566073448179708e+01 1.193863612168640920e+01 1.951216978353570042e+01 1.839065482240942373e+01 -2.041566073448179708e+01 1.839065482240942373e+01 4.897165032578805466e+01
5.634944557176408608e+01 1.225240202135353407e+01 -2.066844243752696997e+01 1.225240202135353407e+01 1.947828519682770221e+01 1.836409644826906629e+01 -2.066844243752696997e+01 1.836409644826906629e+01 4.903243392849579863e+01
5.623164197446276091e+01 1.292333984943333469e+01 -2.036341191100071768e+01 1.292333984943333469e+01 1.948317889262373726e+01 1.792512301053120538e+01 -2.036341191100071768e+01 1.792512301053120538e+01 4.910189000520310287e+01
5.616719957468214375e+01 1.305635690288789874e+01 -2.055203463819549725e+01 1.305635690288789874e+01 1.938639185223138028e+01 1.775931708117279939e+01 -2.055203463819549725e+01 1.775931708117279939e+01 4.876176236185666113e+01
5.631842718479689580e+01 1.297163853469011308e+01 -2.096281321098325989e+01 1.297163853469011308e+01 1.957995273908093026e+01 1.819015908601339859e+01 -2.096281321098325989e+01 1.819015908601339859e+01 4.889934158839525935e+01
5.646132550172221443e+01 1.335294992638683809e+01 -2.036930010661114210e+01 1.335294992638683809e+01 1.939612530583413630e+01 1.734628325382774960e+01 -2.036930010661114210e+01 1.734628325382774960e+01 4.882514163080390546e+01
4.375057092142414206e+01 1.165163909368683193e+01 2.215312275880013360e+01 1.165163909368683193e+01 4.010876919330852530e+01 2.862593007579831550e+01 2.215312275880013360e+01 2.862593007579831550e+01 5.067272102415849133e+01
4.363615759336296662e+01 1.163897868658150436e+01 2.213303622592549402e+01 1.163897868658150436e+01 4.005012928935900618e+01 2.854606350309835605e+01 2.213303622592549402e+01 2.854606350309835605e+01 5.063249646478602983e+01
4.339833529863970085e+01 1.156419817548244033e+01 2.220866787041751778e+01 1.156419817548244033e+01 3.989541963865551111e+01 2.825820914413778695e+01 2.220866787041751778e+01 2.825820914413778695e+01 5.058969539935115733e+01
4.326853876393569465e+01 1.131571173839346045e+01 2.204202309450442598e+01 1.131571173839346045e+01 3.976545418300047174e+01 2.834885365463182083e+01 2.204202309450442598e+01 2.834885365463182083e+01 5.056989352212216460e+01
4.291500319780846695e+01 1.105281436063807199e+01 2.192123890912529660e+01 1.105281436063807199e+01 3.958704330700622620e+01 2.816078499378188482e+01 2.192123890912529660e+01 2.816078499378188482e+01 5.050269878504148124e+01
4.257576317200368976e+01 1.129882319406133462e+01 2.223590087970701745e+01 1.129882319406133462e+01 3.950816059740806452e+01 2.757859710704970624e+01 2.223590087970701745e+01 2.757859710704970624e+01 5.052357024709636590e+01
4.256017529163992918e+01 1.149180126446535688e+01 2.195572805184998799e+01 1.149180126446535688e+01 3.952030958594032484e+01 2.779926644147414194e+01 2.195572805184998799e+01 2.779926644147414194e+01 5.055818620159305965e+01
4.253563379191723470e+01 1.191947173668610382e+01 2.218940134775508710e+01 1.191947173668610382e+01 3.970942399460302141e+01 2.782845172790675647e+01 2.218940134775508710e+01 2.782845172790675647e+01 5.067777945036504406e+01
4.237615252348149397e+01 1.192634271836747040e+01 2.205128988438167781e+01 1.192634271836747040e+01 3.975559927884129507e+01 2.792788237592890965e+01 2.205128988438167781e+01 2.792788237592890965e+01 5.075498141728623835e+01
4.262050362510524337e+01 1.187928462431811383e+01 2.156067030075976021e+01 1.187928462431811383e+01 3.980766558970163516e+01 2.855992741676876889e+01 2.156067030075976021e+01 2.855992741676876889e+01 5.079948948145975862e+01
4.240580872021836001e+01 1.223902250917433143e+01 2.233469631237489850e+01 1.223902250917433143e+01 3.991854804444948712e+01 2.791364060445879502e+01 2.233469631237489850e+01 2.791364060445879502e+01 5.090666280317518755e+01
3.903976167705734923e+01 3.268671920469741110e+01 -2.173694350893637761e+01 3.268671920469741110e+01 4.151106874309285644e+01 -1.886087896604172087e+00 -2.173694350893637761e+01 -1.886087896604172087e+00 -3.368706838098653122e+00
3.891032655513007654e+01 3.258634103838254958e+01 -2.172940158005732769e+01 3.258634103838254958e+01 4.139835779798565341e+01 -1.811248222702999788e+00 -2.172940158005732769e+01 -1.811248222702999788e+00 -3.462451866986240301e+00
3.876269289484783798e+01 3.246199571471439782e+01 -2.165451218783969267e+01 3.246199571471439782e+01 4.109662717970348922e+01 -1.701288048771133932e+00 -2.165451218783969267e+01 -1.701288048771133932e+00 -3.695377960262039796e+00
3.855207326397389522e+01 3.218747120143075335e+01 -2.172129229193480171e+01 3.218747120143075335e+01 4.091203820756249598e+01 -1.427695938239576190e+00 -2.172129229193480171e+01 -1.427695938239576190e+00 -3.860290474274613803e+00
3.830027287038775086e+01 3.162531708577234468e+01 -2.186301586191976298e+01 3.162531708577234468e+01 4.075787083560954471e+01 -1.032448107221720646e+00 -2.186301586191976298e+01 -1.032448107221720646e+00 -4.219029351701203190e+00
3.825666737270582018e+01 3.173813226959216394e+01 -2.191132546064951470e+01 3.173813226959216394e+01 4.077298599955554437e+01 -1.187269416900713637e+00 -2.191132546064951470e+01 -1.187269416900713637e+00 -4.333410876850724236e+00
3.796357103551431322e+01 3.161808278801841965e+01 -2.207169280014836588e+01 3.161808278801841965e+01 4.049608172483074497e+01 -7.247760109576250054e-01 -2.207169280014836588e+01 -7.247760109576250054e-01 -4.415559894146523057e+00
3.784951700390230656e+01 3.151868200246697427e+01 -2.184065153375840396e+01 3.151868200246697427e+01 4.039838494704094529e+01 -2.535532176654735070e-01 -2.184065153375840396e+01 -2.535532176654735070e-01 -4.601748779132257994e+00
3.773060377331641746e+01 3.157954509745334093e+01 -2.235642932397351856e+01 3.157954509745334093e+01 4.026291536458442977e+01 1.530035435605843208e-01 -2.235642932397351856e+01 1.530035435605843208e-01 -4.656573833028549991e+00
3.762839637603796206e+01 3.132111678552854173e+01 -2.238427385050732354e+01 3.132111678552854173e+01 4.017943490031078113e+01 6.036172394939568475e-01 -2.238427385050732354e+01 6.036172394939568475e-01 -4.547534199848572101e+00
3.750020410350844458e+01 3.132908441952912071e+01 -2.196416099320278192e+01 3.132908441952912071e+01 4.022595987778419868e+01 6.770984146486836996e-01 -2.196416099320278192e+01 6.770984146486836996e-01 -4.853418107566948692e+00
5.467080276427865471e+01 -3.156059128457851415e+01 -2.767829811207010238e+01 -3.156059128457851415e+01 4.857295204960497159e+01 3.559342031089061464e+01 -2.767829811207010238e+01 3.559342031089061464e+01 2.516058650272707453e+01
5.454886698531448275e+01 -3.126612394143750961e+01 -2.736674408196730113e+01 -3.126612394143750961e+01 4.826939618269306465e+01 3.522077134030696755e+01 -2.736674408196730113e+01 3.522077134030696755e+01 2.484705786596951782e+01
5.438234710395042981e+01 -3.055404415251098982e+01 -2.654001703083271835e+01 -3.055404415251098982e+01 4.754311021635727030e+01 3.433509547291355091e+01 -2.654001703083271835e+01 3.433509547291355091e+01 2.401557995377761046e+01
5.411589862562618691e+01 -3.011599210868005017e+01 -2.595285744920989046e+01 -3.011599210868005017e+01 4.683576108708053454e+01 3.381336121900699254e+01 -2.595285744920989046e+01 3.381336121900699254e+01 2.332937556366823273e+01
5.405284427035429928e+01 -2.989412949507129369e+01 -2.560017447219713560e+01 -2.989412949507129369e+01 4.648186010889483555e+01 3.327500261999190201e+01 -2.560017447219713560e+01 3.327500261999190201e+01 2.266622398573072772e+01
5.385119468775599216e+01 -2.917113374245980495e+01 -2.488699942092721074e+01 -2.917113374245980495e+01 4.598494756144503981e+01 3.234462458952041430e+01 -2.488699942092721074e+01 3.234462458952041430e+01 2.193232342677752555e+01
5.352198488708601332e+01 -2.866651986841293009e+01 -2.483045068501927233e+01 -2.866651986841293009e+01 4.569040370604152912e+01 3.212748426248612788e+01 -2.483045068501927233e+01 3.212748426248612788e+01 2.171369314894943159e+01
5.322887414283834318e+01 -2.802898267317976533e+01 -2.447207376002019430e+01 -2.802898267317976533e+01 4.578434039028142877e+01 3.178287074679826674e+01 -2.447207376002019430e+01 3.178287074679826674e+01 2.157963981223970507e+01
5.307141630147062727e+01 -2.768595647833695850e+01 -2.453120608806317904e+01 -2.768595647833695850e+01 4.543579685278862001e+01 3.192534149144495004e+01 -2.453120608806317904e+01 3.192534149144495004e+01 2.129870858443754855e+01
5.302533232945431507e+01 -2.743682932359478954e+01 -2.437611319735655613e+01 -2.743682932359478954e+01 4.518121574558882969e+01 3.198474650614446801e+01 -2.437611319735655613e+01 3.198474650614446801e+01 2.132093856942765697e+01
5.281669886412935000e+01 -2.663294095913941817e+01 -2.337247279948240219e+01 -2.663294095913941817e+01 4.492183204394415696e+01 3.094124634593341128e+01 -2.337247279948240219e+01 3.094124634593341128e+01 2.052872843560242089e+01
7.248888791885384819e+01 -3.107399664400472616e+01 -2.187813350532415058e+01 -3.107399664400472616e+01 7.474337920583047890e+01 2.497798464531733842e+01 -2.187813350532415058e+01 2.497798464531733842e+01 2.593383757144365021e+01
7.234492597228405941e+01 -3.078692408901611088e+01 -2.146683282442106133e+01 -3.078692408901611088e+01 7.445536104128547095e+01 2.448757009557378694e+01 -2.146683282442106133e+01 2.448757009557378694e+01 2.543922768623097852e+01
7.220589634757182296e+01 -3.013202183654611588e+01 -2.048602475507618337e+01 -3.013202183654611588e+01 7.374469340547565821e+01 2.339611422430631649e+01 -2.048602475507618337e+01 2.339611422430631649e+01 2.431260126226325013e+01
7.192398167329363901e+01 -2.961939578944357265e+01 -1.969420255786586083e+01 -2.961939578944357265e+01 7.305558138960844872e+01 2.257857657935410245e+01 -1.969420255786586083e+01 2.257857657935410245e+01 2.325390546141969139e+01
7.176977595512333608e+01 -2.958762292067945410e+01 -1.919717908505097981e+01 -2.958762292067945410e+01 7.282619207055421384e+01 2.197583467416779257e+01 -1.919717908505097981e+01 2.197583467416779257e+01 2.234074784788148449e+01
7.167979363841219254e+01 -2.893117515643099225e+01 -1.853331677312252523e+01 -2.893117515643099225e+01 7.250220567849324027e+01 2.096832760632225501e+01 -1.853331677312252523e+01 2.096832760632225501e+01 2.165253556473494356e+01
7.125058483962411060e+01 -2.847978203964678201e+01 -1.823303406513776181e+01 -2.847978203964678201e+01 7.229402969749882857e+01 2.067907219330286850e+01 -1.823303406513776181e+01 2.067907219330286850e+01 2.120847689399600355e+01
7.078832748838291877e+01 -2.799668195150013617e+01 -1.769649250003083552e+01 -2.799668195150013617e+01 7.252767331977335630e+01 2.050080131553573892e+01 -1.769649250003083552e+01 2.050080131553573892e+01 2.101246298011650282e+01
7.070461331296685614e+01 -2.761964788737206433e+01 -1.776765480127926367e+01 -2.761964788737206433e+01 7.211587711511664622e+01 2.052019820462420796e+01 -1.776765480127926367e+01 2.052019820462420796e+01 2.079023764248880468e+01
7.058297588368803588e+01 -2.729158476693998736e+01 -1.730970782674566166e+01 -2.729158476693998736e+01 7.176027017738351788e+01 2.032753146221963902e+01 -1.730970782674566166e+01 2.032753146221963902e+01 2.043664087065018720e+01
7.035063375841193078e+01 -2.674610981574252477e+01 -1.625284689804139049e+01 -2.674610981574252477e+01 7.185896853589497368e+01 1.949178000593516558e+01 -1.625284689804139049e+01 1.949178000593516558e+01 1.959442574439507112e+01
3.493172983454966385e+01 -3.117012179716325715e+00 -5.690731024472208688e+00 -3.117012179716325715e+00 2.613710194474104043e+01 9.148089968833035712e+00 -5.690731024472208688e+00 9.148089968833035712e+00 3.456682416638179944e+01
3.492339533583924549e+01 -3.115482372672394362e+00 -5.670321664692172803e+00 -3.115482372672394362e+00 2.612780693756199213e+01 9.104147055955994716e+00 -5.670321664692172803e+00 9.104147055955994716e+00 3.455264103046729218e+01
3.491632953211289703e+01 -3.029029461143220026e+00 -5.439534988174484553e+00 -3.029029461143220026e+00 2.605469457573623515e+01 8.873567002551355998e+00 -5.439534988174484553e+00 8.873567002551355998e+00 3.448316899696394700e+01
3.490864654881356444e+01 -3.201283052066396184e+00 -5.458897882760711973e+00 -3.201283052066396184e+00 2.603500479549753877e+01 9.024805728600554744e+00 -5.458897882760711973e+00 9.024805728600554744e+00 3.445914508256555564e+01
3.493133434472611043e+01 -3.444987883330212330e+00 -5.515590164286573227e+00 -3.444987883330212330e+00 2.601820725948629942e+01 8.975580438016850238e+00 -5.515590164286573227e+00 8.975580438016850238e+00 3.444401718850123473e+01
3.488911648979699720e+01 -3.201069521635887316e+00 -5.181246433575688037e+00 -3.201069521635887316e+00 2.597923073172419350e+01 8.479033951400770874e+00 -5.181246433575688037e+00 8.479033951400770874e+00 3.442567766385047889e+01
3.488183582946374628e+01 -3.141646909144266253e+00 -5.502801271079058587e+00 -3.141646909144266253e+00 2.598338589996023629e+01 8.635385987691904575e+00 -5.502801271079058587e+00 8.635385987691904575e+00 3.448374031256065564e+01
3.486620759434864425e+01 -2.867624803159991131e+00 -5.378461939853763418e+00 -2.867624803159991131e+00 2.606232348634003770e+01 8.534370748491557634e+00 -5.378461939853763418e+00 8.534370748491557634e+00 3.458178210040045997e+01
3.483620189560537028e+01 -2.801425768792654480e+00 -5.502805720225330433e+00 -2.801425768792654480e+00 2.609490938792116310e+01 8.723341522839714202e+00 -5.502805720225330433e+00 8.723341522839714202e+00 3.461473908170883362e+01
3.501501380315896483e+01 -2.948183979676980648e+00 -5.851506313948052096e+00 -2.948183979676980648e+00 2.619180939009449460e+01 9.310292601938664703e+00 -5.851506313948052096e+00 9.310292601938664703e+00 3.477259421980146925e+01
3.500668374419343110e+01 -2.650472432846695980e+00 -5.173390013941716603e+00 -2.650472432846695980e+00 2.623233300778186106e+01 8.669881962506511996e+00 -5.173390013941716603e+00 8.669881962506511996e+00 3.478924816961197308e+01
-2.292580673182125750e+01 -1.593239325744781532e+01 2.301050082812435704e+01 -1.593239325744781532e+01 -5.193591645562803727e+00 1.166109407516856322e+01 2.301050082812435704e+01 1.166109407516856322e+01 1.108542644972639657e+01
-2.297136559168010805e+01 -1.594979583676890300e+01 2.307743849466600139e+01 -1.594979583676890300e+01 -5.302488757691012466e+00 1.168882545749436197e+01 2.307743849466600139e+01 1.168882545749436197e+01 1.094956611481670272e+01
-2.306249794412907406e+01 -1.603025717115293247e+01 2.329826683544201771e+01 -1.603025717115293247e+01 -5.360104555416429051e+00 1.173373936740978074e+01 2.329826683544201771e+01 1.173373936740978074e+01 1.086199422231949541e+01
-2.317100952776101863e+01 -1.631149868598814834e+01 2.334183125558918803e+01 -1.631149868598814834e+01 -5.544526161107616424e+00 1.209184686349844995e+01 2.334183125558918803e+01 1.209184686349844995e+01 1.070817279957584311e+01
-2.315099381657054778e+01 -1.647601816043345124e+01 2.332505581694425700e+01 -1.647601816043345124e+01 -5.649813319577821069e+00 1.214400321254565540e+01 2.332505581694425700e+01 1.214400321254565540e+01 1.064748589083523811e+01
-2.319972105549919306e+01 -1.646686354012476627e+01 2.366943178614246079e+01 -1.646686354012476627e+01 -5.809058825159458372e+00 1.194764677941268083e+01 2.366943178614246079e+01 1.194764677941268083e+01 1.048815919318010437e+01
-2.325319292006902927e+01 -1.645323861258644627e+01 2.327188199924841427e+01 -1.645323861258644627e+01 -6.120883775001907168e+00 1.198721708943560316e+01 2.327188199924841427e+01 1.198721708943560316e+01 1.013094156344080154e+01
-2.314330727150428757e+01 -1.626866574095659246e+01 2.309771304899330246e+01 -1.626866574095659246e+01 -6.287582739005690868e+00 1.176358752243779016e+01 2.309771304899330246e+01 1.176358752243779016e+01 9.839562212884368719e+00
-2.334952538053145688e+01 -1.625877013936450766e+01 2.311006466879497978e+01 -1.625877013936450766e+01 -6.465112174561526537e+00 1.208683887641412547e+01 2.311006466879497978e+01 1.208683887641412547e+01 9.656851685507930938e+00
-2.321053131091646193e+01 -1.628258977407235619e+01 2.286022823333847498e+01 -1.628258977407235619e+01 -6.691912896047645276e+00 1.250144680668619657e+01 2.286022823333847498e+01 1.250144680668619657e+01 9.431082066003735775e+00
-2.307060764767462402e+01 -1.614833665103832061e+01 2.322309191062373657e+01 -1.614833665103832061e+01 -6.686139503607944512e+00 1.198182621491367073e+01 2.322309191062373657e+01 1.198182621491367073e+01 9.446001888234199839e+00
2.842259321673838457e+01 3.624594237561765908e+01 1.528021039248187130e+01 3.624594237561765908e+01 3.185501669117344559e+00 -4.823607411053866811e-01 1.528021039248187130e+01 -4.823607411053866811e-01 -1.402865228277901011e+01
2.817273333724354600e+01 3.613392506929948667e+01 1.516978444445503982e+01 3.613392506929948667e+01 2.993301425256537751e+00 -6.836027149987564666e-01 1.516978444445503982e+01 -6.836027149987564666e-01 -1.421004214670341348e+01
2.778902781402737787e+01 3.586087442278294901e+01 1.495654696759959990e+01 3.586087442278294901e+01 2.582621528989978099e+00 -1.100265153853189792e+00 1.495654696759959990e+01 -1.100265153853189792e+00 -1.455671948700026697e+01
2.735386093619728598e+01 3.542658198566872585e+01 1.470158784960615073e+01 3.542658198566872585e+01 2.236307371709376213e+00 -1.256565099760721615e+00 1.470158784960615073e+01 -1.256565099760721615e+00 -1.491387786207289423e+01
2.705554261540778427e+01 3.477283899021885105e+01 1.422204692841203588e+01 3.477283899021885105e+01 1.871965789995882812e+00 -1.380274940661165850e+00 1.422204692841203588e+01 -1.380274940661165850e+00 -1.514937607246410778e+01
2.678740451683685109e+01 3.463295363003517480e+01 1.399278617506342037e+01 3.463295363003517480e+01 1.774192076847081578e+00 -1.850294632700143271e+00 1.399278617506342037e+01 -1.850294632700143271e+00 -1.531597595789336275e+01
2.646797388711527432e+01 3.476487986791409668e+01 1.377164923278901476e+01 3.476487986791409668e+01 1.489062926433334377e+00 -1.873033619755917423e+00 1.377164923278901476e+01 -1.873033619755917423e+00 -1.539357362768360815e+01
2.647297909186006493e+01 3.501501936736997322e+01 1.380162349748422734e+01 3.501501936736997322e+01 1.404243433321054946e+00 -1.849275571136603791e+00 1.380162349748422734e+01 -1.849275571136603791e+00 -1.534638615290325347e+01
2.599749784326413860e+01 3.504030555162469796e+01 1.333704804709069514e+01 3.504030555162469796e+01 1.143335057196636528e+00 -1.916486332810230619e+00 1.333704804709069514e+01 -1.916486332810230619e+00 -1.564236258296412352e+01
2.573446750513100767e+01 3.502095217362361979e+01 1.326060705978355792e+01 3.502095217362361979e+01 8.871320486153381202e-01 -1.972979321140560183e+00 1.326060705978355792e+01 -1.972979321140560183e+00 -1.581209041609283439e+01
2.578583737510619756e+01 3.478968510433612238e+01 1.332713659504972803e+01 3.478968510433612238e+01 8.923585594585612402e-01 -2.056453692486762908e+00 1.332713659504972803e+01 -2.056453692486762908e+00 -1.566752016265688141e+01
4.902813775547256196e-04 -5.142488097175713297e-09 -3.432554765743736421e-09 -5.142488097175713297e-09 4.902821959373613670e-04 1.691747050637622814e-12 -3.432554765743736421e-09 1.691747050637622814e-12 4.902820276085298077e-04
1.646984109258243503e-03 -2.190337054814320630e-02 2.889434283657411548e-04 -2.190337054814320630e-02 1.686283447803398105e-03 -1.455684944139661215e-02 2.889434283657411548e-04 -1.455684944139661215e-02 1.585609574543852141e-03
1.133321315220835179e-02 -4.155993014827928655e-02 1.124915997193743911e-01 -4.155993014827928655e-02 1.193244611161384770e-02 -1.160943093034127321e-01 1.124915997193743911e-01 -1.160943093034127321e-01 1.344152269396498532e-02
2.866245895682381292e-02 -2.131591883636294038e-01 6.072861140872935076e-02 -2.131591883636294038e-01 3.508718283510321723e-02 6.967222450338581008e-02 6.072861140872935076e-02 6.967222450338581008e-02 3.160287156536387837e-02
5.219410797723684353e-02 -4.642714537977992717e-01 -4.008638762324168332e-03 -4.642714537977992717e-01 6.294065203313076173e-02 1.010041202193095178e-01 -4.008638762324168332e-03 1.010041202193095178e-01 5.806714819563494473e-02
8.763004112520564326e-02 -3.370677509221524648e-01 1.593269822554922444e-01 -3.370677509221524648e-01 1.005957860081622690e-01 -2.160581471984076574e-01 1.593269822554922444e-01 -2.160581471984076574e-01 9.404950216661739359e-02
9.488914188826810814e-02 -3.542847205003517574e-01 -1.212066574504091221e-01 -3.542847205003517574e-01 8.783619634484522709e-02 -5.227083290151594841e-02 -1.212066574504091221e-01 -5.227083290151594841e-02 1.165198989297260151e-01
1.246477765570239427e-01 -2.459031943157466704e-01 -7.607731433038993074e-02 -2.459031943157466704e-01 1.825313996163000496e-01 -1.481373826540335545e-02 -7.607731433038993074e-02 -1.481373826540335545e-02 1.633800659382411702e-01
1.729668529615824568e-01 -1.989243874245647248e-01 -2.559383734165595614e-01 -1.989243874245647248e-01 2.742054558569062550e-01 1.799066736872722005e-01 -2.559383734165595614e-01 1.799066736872722005e-01 2.745967963995682437e-01
2.590344912139732059e-01 -3.108471865629182096e-01 -5.763719984978513677e-01 -3.108471865629182096e-01 3.502492124610304680e-01 6.149849538336767951e-01 -5.763719984978513677e-01 6.149849538336767951e-01 3.269146912048996323e-01