                                                                                     
                             WELCOME TO ABACUS v3.0                                  
                                                                                     
               'Atomic-orbital Based Ab-initio Computation at UStc'                  
                                                                                     
                     Website: http://abacus.ustc.edu.cn/                             
                                                                                     
    Version: Parallel, in development
    Processor Number is 16
    Start Time is Mon May 22 14:16:29 2023
                                                                                     
 ------------------------------------------------------------------------------------

 READING GENERAL INFORMATION
                           global_out_dir = OUT.ABACUS/
                           global_in_card = INPUT
                               pseudo_dir = 
                              orbital_dir = 
                                    DRANK = 1
                                    DSIZE = 16
                                   DCOLOR = 1
                                    GRANK = 1
                                    GSIZE = 1
 The esolver type has been set to : ksdft_lcao




 >>>>>>>>>>>>>>>>>>>>>>>>>>>>>>>>>>>>>>>>>>>>>>>>>>>>>>>>>>>>>>>>>>>>>>
 |                                                                    |
 | Reading atom information in unitcell:                              |
 | From the input file and the structure file we know the number of   |
 | different elments in this unitcell, then we list the detail        |
 | information for each element, especially the zeta and polar atomic |
 | orbital number for each element. The total atom number is counted. |
 | We calculate the nearest atom distance for each atom and show the  |
 | Cartesian and Direct coordinates for each atom. We list the file   |
 | address for atomic orbitals. The volume and the lattice vectors    |
 | in real and reciprocal space is also shown.                        |
 |                                                                    |
 <<<<<<<<<<<<<<<<<<<<<<<<<<<<<<<<<<<<<<<<<<<<<<<<<<<<<<<<<<<<<<<<<<<<<<




 READING UNITCELL INFORMATION
                                    ntype = 2
                 atom label for species 1 = Si
                 atom label for species 2 = C
                  lattice constant (Bohr) = 1.88973
              lattice constant (Angstrom) = 1

 READING ATOM TYPE 1
                               atom label = Si
                      L=0, number of zeta = 3
                      L=1, number of zeta = 3
                      L=2, number of zeta = 2
             number of atom for this type = 36
                      start magnetization = FALSE
                      start magnetization = FALSE
                      start magnetization = FALSE
                      start magnetization = FALSE
                      start magnetization = FALSE
                      start magnetization = FALSE
                      start magnetization = FALSE
                      start magnetization = FALSE
                      start magnetization = FALSE
                      start magnetization = FALSE
                      start magnetization = FALSE
                      start magnetization = FALSE
                      start magnetization = FALSE
                      start magnetization = FALSE
                      start magnetization = FALSE
                      start magnetization = FALSE
                      start magnetization = FALSE
                      start magnetization = FALSE
                      start magnetization = FALSE
                      start magnetization = FALSE
                      start magnetization = FALSE
                      start magnetization = FALSE
                      start magnetization = FALSE
                      start magnetization = FALSE
                      start magnetization = FALSE
                      start magnetization = FALSE
                      start magnetization = FALSE
                      start magnetization = FALSE
                      start magnetization = FALSE
                      start magnetization = FALSE
                      start magnetization = FALSE
                      start magnetization = FALSE
                      start magnetization = FALSE
                      start magnetization = FALSE
                      start magnetization = FALSE
                      start magnetization = FALSE

 READING ATOM TYPE 2
                               atom label = C
                      L=0, number of zeta = 3
                      L=1, number of zeta = 3
                      L=2, number of zeta = 2
             number of atom for this type = 36
                      start magnetization = FALSE
                      start magnetization = FALSE
                      start magnetization = FALSE
                      start magnetization = FALSE
                      start magnetization = FALSE
                      start magnetization = FALSE
                      start magnetization = FALSE
                      start magnetization = FALSE
                      start magnetization = FALSE
                      start magnetization = FALSE
                      start magnetization = FALSE
                      start magnetization = FALSE
                      start magnetization = FALSE
                      start magnetization = FALSE
                      start magnetization = FALSE
                      start magnetization = FALSE
                      start magnetization = FALSE
                      start magnetization = FALSE
                      start magnetization = FALSE
                      start magnetization = FALSE
                      start magnetization = FALSE
                      start magnetization = FALSE
                      start magnetization = FALSE
                      start magnetization = FALSE
                      start magnetization = FALSE
                      start magnetization = FALSE
                      start magnetization = FALSE
                      start magnetization = FALSE
                      start magnetization = FALSE
                      start magnetization = FALSE
                      start magnetization = FALSE
                      start magnetization = FALSE
                      start magnetization = FALSE
                      start magnetization = FALSE
                      start magnetization = FALSE
                      start magnetization = FALSE

                        TOTAL ATOM NUMBER = 72

 CARTESIAN COORDINATES ( UNIT = 1.88973 Bohr ).
         atom                   x                   y                   z                 mag                  vx                  vy                  vz
     tauc_Si1    -0.0140026836211       1.77972993785       2.54557926365                   0                   0                   0                   0
     tauc_Si2       3.12013656524       7.12341389672       2.59945401462                   0                   0                   0                   0
     tauc_Si3       -3.0823522138       7.16206688626       2.54548703972                   0                   0                   0                   0
     tauc_Si4       4.63800668794       6.21419911401       5.16901377913                   0                   0                   0                   0
     tauc_Si5       1.49903788191       0.85538619681       5.10293399499                   0                   0                   0                   0
     tauc_Si6       7.71568134445      0.838541589015       5.14887870048                   0                   0                   0                   0
     tauc_Si7    -0.0685822504062       1.74332238359       7.63288030685                   0                   0                   0                   0
     tauc_Si8        3.0733214439       7.10796207987       7.70460320314                   0                   0                   0                   0
     tauc_Si9      -3.12372075612       7.11335702813       7.63547872462                   0                   0                   0                   0
    tauc_Si10       4.78377241787       6.27696644516      0.256899238479                   0                   0                   0                   0
    tauc_Si11          1.66199469      0.940318237623      0.197878377191                   0                   0                   0                   0
    tauc_Si12       7.84813238029      0.913142176126      0.268520312277                   0                   0                   0                   0
    tauc_Si13      -1.56958035521       4.46601338153        2.5533877055                   0                   0                   0                   0
    tauc_Si14       1.54032569873       4.44961990033       2.57992478571                   0                   0                   0                   0
    tauc_Si15     0.0185429443921       7.14309228218       2.59119737128                   0                   0                   0                   0
    tauc_Si16       6.16480941852       3.51439188253       5.17162126567                   0                   0                   0                   0
    tauc_Si17       3.05755121293       3.53185614845       5.13017251154                   0                   0                   0                   0
    tauc_Si18       4.61329703061      0.833913583522       5.15397575692                   0                   0                   0                   0
    tauc_Si19      -1.59653832192       4.43589596137       7.62497606448                   0                   0                   0                   0
    tauc_Si20       1.48594000781       4.40700692596       7.69142795898                   0                   0                   0                   0
    tauc_Si21    -0.0348663504642       7.12033317043       7.66768155472                   0                   0                   0                   0
    tauc_Si22       6.31641551633       3.62344799379      0.250469449201                   0                   0                   0                   0
    tauc_Si23        3.2194246496       3.62129916624       0.22327282441                   0                   0                   0                   0
    tauc_Si24       4.74057695717      0.917086703748      0.233755907279                   0                   0                   0                   0
    tauc_Si25        3.0816674047       1.74876773661       2.56418416895                   0                   0                   0                   0
    tauc_Si26       6.18072722141       1.74449350358       2.60890864913                   0                   0                   0                   0
    tauc_Si27       4.63323614594       4.43202231637       2.62033041812                   0                   0                   0                   0
    tauc_Si28       1.52769588193       6.21944074468       5.13745245036                   0                   0                   0                   0
    tauc_Si29      -1.58109885421        6.2424860426        5.0934838048                   0                   0                   0                   0
    tauc_Si30    -0.0166924481471       3.53836216776        5.1144120454                   0                   0                   0                   0
    tauc_Si31       3.03762627949       1.72731284366       7.67266244933                   0                   0                   0                   0
    tauc_Si32       6.13528043723       1.72053332108       7.67937193136                   0                   0                   0                   0
    tauc_Si33       4.60331417649       4.41352131492        7.6872908661                   0                   0                   0                   0
    tauc_Si34       1.67116596524       6.30125414294      0.240739502371                   0                   0                   0                   0
    tauc_Si35      -1.42703628326       6.32076224681      0.183558916636                   0                   0                   0                   0
    tauc_Si36      0.118860807693       3.63418591154       0.19697453082                   0                   0                   0                   0
      tauc_C1    -0.0423838424067       1.75366654356       4.45408862903                   0                   0                   0                   0
      tauc_C2       3.09367908206       7.11396136184       4.53291666791                   0                   0                   0                   0
      tauc_C3       -3.1173206731       7.14088831978       4.45950418831                   0                   0                   0                   0
      tauc_C4       4.61252440139       6.20805593787       7.06233436507                   0                   0                   0                   0
      tauc_C5       1.47562133104      0.860787000738       7.01009510487                   0                   0                   0                   0
      tauc_C6       7.69361779485      0.822267305121       7.07125108623                   0                   0                   0                   0
      tauc_C7    -0.0819457837674       1.74394464602       9.56468699165                   0                   0                   0                   0
      tauc_C8       3.03492396571       7.08393278407       9.61180135106                   0                   0                   0                   0
      tauc_C9      -3.14636910843       7.11028190542       9.53443189903                   0                   0                   0                   0
     tauc_C10       4.67631973831       6.22307570568        1.9937585869                   0                   0                   0                   0
     tauc_C11       1.53333655269      0.863775481569       1.93463658852                   0                   0                   0                   0
     tauc_C12       7.73544853015       0.83380765262        1.9906834022                   0                   0                   0                   0
     tauc_C13      -1.58028833981        4.4700198481       4.46970994108                   0                   0                   0                   0
     tauc_C14       1.53567769974       4.45657228995       4.50542426219                   0                   0                   0                   0
     tauc_C15   -0.00177458046757        7.1435825679       4.49624276367                   0                   0                   0                   0
     tauc_C16       6.14553957794       3.50517919499       7.07165001783                   0                   0                   0                   0
     tauc_C17       3.04823010798       3.52971993313       7.03816258466                   0                   0                   0                   0
     tauc_C18       4.59748357412      0.831087431996       7.04800386006                   0                   0                   0                   0
     tauc_C19       -1.6286298983       4.42321626796       9.54950936754                   0                   0                   0                   0
     tauc_C20       1.49629683179       4.41740547799       9.58982394267                   0                   0                   0                   0
     tauc_C21    -0.0630242244064       7.11340139645       9.57830984964                   0                   0                   0                   0
     tauc_C22       6.19983405976       3.53226280937       1.99908322088                   0                   0                   0                   0
     tauc_C23       3.09566218945       3.54203708246       1.96430605436                   0                   0                   0                   0
     tauc_C24         4.632231958      0.862807633194       1.95734649297                   0                   0                   0                   0
     tauc_C25       3.04915930176       1.75289858827       4.49254975834                   0                   0                   0                   0
     tauc_C26       6.17830343611       1.74330262052       4.52916463892                   0                   0                   0                   0
     tauc_C27       4.62541210044       4.42045312251       4.53536826959                   0                   0                   0                   0
     tauc_C28       1.50353388656       6.21878247056       7.03770517503                   0                   0                   0                   0
     tauc_C29      -1.59268580733        6.2216789871       7.02948725787                   0                   0                   0                   0
     tauc_C30    -0.0586566204091       3.53637138403       7.01712395187                   0                   0                   0                   0
     tauc_C31       3.03108630015       1.72768250152        9.5675748332                   0                   0                   0                   0
     tauc_C32       6.11889819212       1.71281475494       9.61627686327                   0                   0                   0                   0
     tauc_C33       4.57100608621       4.38948807894       9.60768496383                   0                   0                   0                   0
     tauc_C34       1.56637488021        6.2500953917        1.9627737486                   0                   0                   0                   0
     tauc_C35      -1.54822967448       6.25603670203       1.93696512449                   0                   0                   0                   0
     tauc_C36   -0.00792052293342       3.56271089784        1.9371963019                   0                   0                   0                   0


 READING ORBITAL FILE NAMES FOR LCAO
 orbital file: Si_gga_9au_100Ry_3s3p2d.orb
 orbital file: C_gga_9au_100Ry_3s3p2d.orb

                          Volume (Bohr^3) = 5095.15902449
                             Volume (A^3) = 755.023767206

 Lattice vectors: (Cartesian coordinate: in unit of a_0)
       +9.24242506372                  +0                  +0
       -4.54108822292      +8.17995928145                  +0
      -0.193842849022     -0.117303658888      +9.98674731985
 Reciprocal vectors: (Cartesian coordinate: in unit of 2 pi/a_0)
      +0.108196711697    +0.0600651905884   +0.00280562074723
                   -0     +0.122249997291   +0.00143594020375
                   +0                  -0     +0.100132702668




 >>>>>>>>>>>>>>>>>>>>>>>>>>>>>>>>>>>>>>>>>>>>>>>>>>>>>>>>>>>>>>>>>>>>>>
 |                                                                    |
 | Reading pseudopotentials files:                                    |
 | The pseudopotential file is in UPF format. The 'NC' indicates that |
 | the type of pseudopotential is 'norm conserving'. Functional of    |
 | exchange and correlation is decided by 4 given parameters in UPF   |
 | file.  We also read in the 'core correction' if there exists.      |
 | Also we can read the valence electrons number and the maximal      |
 | angular momentum used in this pseudopotential. We also read in the |
 | trail wave function, trail atomic density and local-pseudopotential|
 | on logrithmic grid. The non-local pseudopotential projector is also|
 | read in if there is any.                                           |
 |                                                                    |
 <<<<<<<<<<<<<<<<<<<<<<<<<<<<<<<<<<<<<<<<<<<<<<<<<<<<<<<<<<<<<<<<<<<<<<




                PAO radial cut off (Bohr) = 15

 Read in pseudopotential file is Si_ONCV_PBE-1.0.upf
                     pseudopotential type = NC
          exchange-correlation functional = PBE
                 nonlocal core correction = 0
                        valence electrons = 4
                                     lmax = 1
                           number of zeta = 0
                     number of projectors = 4
                           L of projector = 0
                           L of projector = 0
                           L of projector = 1
                           L of projector = 1
                PAO radial cut off (Bohr) = 15

 Read in pseudopotential file is C_ONCV_PBE-1.0.upf
                     pseudopotential type = NC
          exchange-correlation functional = PBE
                 nonlocal core correction = 0
                        valence electrons = 4
                                     lmax = 1
                           number of zeta = 0
                     number of projectors = 4
                           L of projector = 0
                           L of projector = 0
                           L of projector = 1
                           L of projector = 1
     initial pseudo atomic orbital number = 0
                                   NLOCAL = 1584




 >>>>>>>>>>>>>>>>>>>>>>>>>>>>>>>>>>>>>>>>>>>>>>>>>>>>>>>>>>>>>>>>>>>>>>
 |                                                                    |
 | Setup plane waves of charge/potential:                             |
 | Use the energy cutoff and the lattice vectors to generate the      |
 | dimensions of FFT grid. The number of FFT grid on each processor   |
 | is 'nrxx'. The number of plane wave basis in reciprocal space is   |
 | different for charege/potential and wave functions. We also set    |
 | the 'sticks' for the parallel of FFT. The number of plane waves    |
 | is 'npw' in each processor.                                        |
 <<<<<<<<<<<<<<<<<<<<<<<<<<<<<<<<<<<<<<<<<<<<<<<<<<<<<<<<<<<<<<<<<<<<<<





 SETUP THE PLANE WAVE BASIS
 energy cutoff for charge/potential (unit:Ry) = 400
          [fft grid for charge/potential] = 120, 120, 128
                      [fft grid division] = 2, 2, 2
      [big fft grid for charge/potential] = 60, 60, 64
                                     nbxx = 14400
                                     nrxx = 115200

 SETUP PLANE WAVES FOR CHARGE/POTENTIAL
                    number of plane waves = 688323
                         number of sticks = 8599

 PARALLEL PW FOR CHARGE/POTENTIAL
     PROC   COLUMNS(POT)             PW
        1            537          43020
        2            538          43022
        3            538          43022
        4            538          43022
        5            538          43021
        6            538          43021
        7            537          43019
        8            537          43019
        9            537          43019
       10            537          43019
       11            537          43019
       12            537          43019
       13            538          43022
       14            538          43021
       15            537          43019
       16            537          43019
 --------------- sum -------------------
       16           8599         688323
                            number of |g| = 42106
                                  max |g| = 36.18244296
                                  min |g| = 0.0153222270502

 SETUP THE ELECTRONS NUMBER
            electron number of element Si = 4
      total electron number of element Si = 144
             electron number of element C = 4
       total electron number of element C = 144
            AUTOSET number of electrons:  = 288
 DONE : SETUP UNITCELL Time : 0.102900456267 (SEC)





 >>>>>>>>>>>>>>>>>>>>>>>>>>>>>>>>>>>>>>>>>>>>>>>>>>>>>>>>>>>>>>>>>>>>>>
 |                                                                    |
 | Setup K-points                                                     |
 | We setup the k-points according to input parameters.               |
 | The reduced k-points are set according to symmetry operations.     |
 | We treat the spin as another set of k-points.                      |
 |                                                                    |
 <<<<<<<<<<<<<<<<<<<<<<<<<<<<<<<<<<<<<<<<<<<<<<<<<<<<<<<<<<<<<<<<<<<<<<





 SETUP K-POINTS
                                    nspin = 1
                   Input type of k points = Monkhorst-Pack(Gamma)
                                   nkstot = 64
                               nkstot_ibz = 36
      IBZ             DirectX             DirectY             DirectZ              Weight    ibz2bz
        1                   0                   0                   0            0.015625         0
        2                0.75                   0                   0             0.03125         1
        3                 0.5                   0                   0            0.015625         2
        4                   0                0.75                   0             0.03125         4
        5                0.75                0.75                   0             0.03125         5
        6                 0.5                0.75                   0             0.03125         6
        7                0.25                0.75                   0             0.03125         7
        8                   0                 0.5                   0            0.015625         8
        9                0.75                 0.5                   0             0.03125         9
       10                 0.5                 0.5                   0            0.015625        10
       11                   0                   0                0.75             0.03125        16
       12                0.75                   0                0.75             0.03125        17
       13                 0.5                   0                0.75             0.03125        18
       14                0.25                   0                0.75             0.03125        19
       15                   0                0.75                0.75             0.03125        20
       16                0.75                0.75                0.75             0.03125        21
       17                 0.5                0.75                0.75             0.03125        22
       18                0.25                0.75                0.75             0.03125        23
       19                   0                 0.5                0.75             0.03125        24
       20                0.75                 0.5                0.75             0.03125        25
       21                 0.5                 0.5                0.75             0.03125        26
       22                0.25                 0.5                0.75             0.03125        27
       23                   0                0.25                0.75             0.03125        28
       24                0.75                0.25                0.75             0.03125        29
       25                 0.5                0.25                0.75             0.03125        30
       26                0.25                0.25                0.75             0.03125        31
       27                   0                   0                 0.5            0.015625        32
       28                0.75                   0                 0.5             0.03125        33
       29                 0.5                   0                 0.5            0.015625        34
       30                   0                0.75                 0.5             0.03125        36
       31                0.75                0.75                 0.5             0.03125        37
       32                 0.5                0.75                 0.5             0.03125        38
       33                0.25                0.75                 0.5             0.03125        39
       34                   0                 0.5                 0.5            0.015625        40
       35                0.75                 0.5                 0.5             0.03125        41
       36                 0.5                 0.5                 0.5            0.015625        42
                               nkstot now = 36

  KPOINTS            DIRECT_X            DIRECT_Y            DIRECT_Z              WEIGHT
        1                   0                   0                   0            0.015625
        2                0.75                   0                   0             0.03125
        3                 0.5                   0                   0            0.015625
        4                   0                0.75                   0             0.03125
        5                0.75                0.75                   0             0.03125
        6                 0.5                0.75                   0             0.03125
        7                0.25                0.75                   0             0.03125
        8                   0                 0.5                   0            0.015625
        9                0.75                 0.5                   0             0.03125
       10                 0.5                 0.5                   0            0.015625
       11                   0                   0                0.75             0.03125
       12                0.75                   0                0.75             0.03125
       13                 0.5                   0                0.75             0.03125
       14                0.25                   0                0.75             0.03125
       15                   0                0.75                0.75             0.03125
       16                0.75                0.75                0.75             0.03125
       17                 0.5                0.75                0.75             0.03125
       18                0.25                0.75                0.75             0.03125
       19                   0                 0.5                0.75             0.03125
       20                0.75                 0.5                0.75             0.03125
       21                 0.5                 0.5                0.75             0.03125
       22                0.25                 0.5                0.75             0.03125
       23                   0                0.25                0.75             0.03125
       24                0.75                0.25                0.75             0.03125
       25                 0.5                0.25                0.75             0.03125
       26                0.25                0.25                0.75             0.03125
       27                   0                   0                 0.5            0.015625
       28                0.75                   0                 0.5             0.03125
       29                 0.5                   0                 0.5            0.015625
       30                   0                0.75                 0.5             0.03125
       31                0.75                0.75                 0.5             0.03125
       32                 0.5                0.75                 0.5             0.03125
       33                0.25                0.75                 0.5             0.03125
       34                   0                 0.5                 0.5            0.015625
       35                0.75                 0.5                 0.5             0.03125
       36                 0.5                 0.5                 0.5            0.015625

           k-point number in this process = 36
       minimum distributed K point number = 36

  KPOINTS         CARTESIAN_X         CARTESIAN_Y         CARTESIAN_Z              WEIGHT
        1                   0                   0                   0             0.03125
        2     0.0811475337727     0.0450488929413    0.00210421556042              0.0625
        3     0.0540983558485     0.0300325952942    0.00140281037362             0.03125
        4                   0     0.0916874979685    0.00107695515281              0.0625
        5     0.0811475337727       0.13673639091    0.00318117071324              0.0625
        6     0.0540983558485      0.121720093263    0.00247976552643              0.0625
        7     0.0270491779242      0.106703795616    0.00177836033962              0.0625
        8                   0     0.0611249986456   0.000717970101875             0.03125
        9     0.0811475337727      0.106173891587     0.0028221856623              0.0625
       10     0.0540983558485     0.0911575939398    0.00212078047549             0.03125
       11                   0                   0      0.075099527001              0.0625
       12     0.0811475337727     0.0450488929413     0.0772037425615              0.0625
       13     0.0540983558485     0.0300325952942     0.0765023373747              0.0625
       14     0.0270491779242     0.0150162976471     0.0758009321878              0.0625
       15                   0     0.0916874979685     0.0761764821539              0.0625
       16     0.0811475337727       0.13673639091     0.0782806977143              0.0625
       17     0.0540983558485      0.121720093263     0.0775792925275              0.0625
       18     0.0270491779242      0.106703795616     0.0768778873407              0.0625
       19                   0     0.0611249986456     0.0758174971029              0.0625
       20     0.0811475337727      0.106173891587     0.0779217126633              0.0625
       21     0.0540983558485     0.0911575939398     0.0772203074765              0.0625
       22     0.0270491779242     0.0761412962927     0.0765189022897              0.0625
       23                   0     0.0305624993228      0.075458512052              0.0625
       24     0.0811475337727     0.0756113922641     0.0775627276124              0.0625
       25     0.0540983558485      0.060595094617     0.0768613224256              0.0625
       26     0.0270491779242     0.0455787969699     0.0761599172388              0.0625
       27                   0                   0      0.050066351334             0.03125
       28     0.0811475337727     0.0450488929413     0.0521705668945              0.0625
       29     0.0540983558485     0.0300325952942     0.0514691617076             0.03125
       30                   0     0.0916874979685     0.0511433064868              0.0625
       31     0.0811475337727       0.13673639091     0.0532475220473              0.0625
       32     0.0540983558485      0.121720093263     0.0525461168605              0.0625
       33     0.0270491779242      0.106703795616     0.0518447116736              0.0625
       34                   0     0.0611249986456     0.0507843214359             0.03125
       35     0.0811475337727      0.106173891587     0.0528885369963              0.0625
       36     0.0540983558485     0.0911575939398     0.0521871318095             0.03125

  KPOINTS            DIRECT_X            DIRECT_Y            DIRECT_Z              WEIGHT
        1                   0                   0                   0             0.03125
        2                0.75                   0                   0              0.0625
        3                 0.5                   0                   0             0.03125
        4                   0                0.75                   0              0.0625
        5                0.75                0.75                   0              0.0625
        6                 0.5                0.75                   0              0.0625
        7                0.25                0.75                   0              0.0625
        8                   0                 0.5                   0             0.03125
        9                0.75                 0.5                   0              0.0625
       10                 0.5                 0.5                   0             0.03125
       11                   0                   0                0.75              0.0625
       12                0.75                   0                0.75              0.0625
       13                 0.5                   0                0.75              0.0625
       14                0.25                   0                0.75              0.0625
       15                   0                0.75                0.75              0.0625
       16                0.75                0.75                0.75              0.0625
       17                 0.5                0.75                0.75              0.0625
       18                0.25                0.75                0.75              0.0625
       19                   0                 0.5                0.75              0.0625
       20                0.75                 0.5                0.75              0.0625
       21                 0.5                 0.5                0.75              0.0625
       22                0.25                 0.5                0.75              0.0625
       23                   0                0.25                0.75              0.0625
       24                0.75                0.25                0.75              0.0625
       25                 0.5                0.25                0.75              0.0625
       26                0.25                0.25                0.75              0.0625
       27                   0                   0                 0.5             0.03125
       28                0.75                   0                 0.5              0.0625
       29                 0.5                   0                 0.5             0.03125
       30                   0                0.75                 0.5              0.0625
       31                0.75                0.75                 0.5              0.0625
       32                 0.5                0.75                 0.5              0.0625
       33                0.25                0.75                 0.5              0.0625
       34                   0                 0.5                 0.5             0.03125
       35                0.75                 0.5                 0.5              0.0625
       36                 0.5                 0.5                 0.5             0.03125
 DONE : INIT K-POINTS Time : 0.112840288584 (SEC)

                           occupied bands = 144
                                   NLOCAL = 1584
                                   NBANDS = 173
                                   NBANDS = 173




 >>>>>>>>>>>>>>>>>>>>>>>>>>>>>>>>>>>>>>>>>>>>>>>>>>>>>>>>>>>>>>>>>>>>>>
 |                                                                    |
 | Setup numerical orbitals:                                          |
 | This part setup: numerical atomic orbitals, non-local projectors   |
 | and neutral potential (1D). The atomic orbitals information        |
 | including the radius, angular momentum and zeta number.            |
 | The neutral potential is the sum of local part of pseudopotential  |
 | and potential given by atomic charge, they will cancel out beyond  |
 | a certain radius cutoff, because the Z/r character.                |
 |                                                                    |
 <<<<<<<<<<<<<<<<<<<<<<<<<<<<<<<<<<<<<<<<<<<<<<<<<<<<<<<<<<<<<<<<<<<<<<





 SETUP ONE DIMENSIONAL ORBITALS/POTENTIAL
                        delta k  (1/Bohr) = 0.01
                        delta r    (Bohr) = 0.01
                        dr_uniform (Bohr) = 0.001
                        rmax       (Bohr) = 30
                                    kmesh = 1005
      ORBITAL  L  N      nr      dr    RCUT  CHECK_UNIT    NEW_UNIT
            1  0  0     901    0.01       9           1           1
            2  0  1     901    0.01       9           1           1
            3  0  2     901    0.01       9           1           1
            4  1  0     901    0.01       9           1           1
            5  1  1     901    0.01       9           1           1
            6  1  2     901    0.01       9           1           1
            7  2  0     901    0.01       9           1           1
            8  2  1     901    0.01       9           1           1
      ORBITAL  L  N      nr      dr    RCUT  CHECK_UNIT    NEW_UNIT
            1  0  0     901    0.01       9           1           1
            2  0  1     901    0.01       9           1           1
            3  0  2     901    0.01       9           1           1
            4  1  0     901    0.01       9           1           1
            5  1  1     901    0.01       9           1           1
            6  1  2     901    0.01       9           1           1
            7  2  0     901    0.01       9           1           1
            8  2  1     901    0.01       9           1           1
 SET NONLOCAL PSEUDOPOTENTIAL PROJECTORS
 SET NONLOCAL PSEUDOPOTENTIAL PROJECTORS
 max number of nonlocal projetors among all species is 4

 SETUP THE TWO-CENTER INTEGRATION TABLES

 SETUP THE DIVISION OF H/S MATRIX
 divide the H&S matrix using 2D block algorithms.
                                     nb2d = 64
 parameter nb2d is too large: nb2d = 64
 reset nb2d to value 1, this set would make the program keep working but maybe get slower during diagonalization.
                  trace_loc_row dimension = 1584
                  trace_loc_col dimension = 1584
                                     nloc = 156816

 -------------------------------------------
 STEP OF MOLECULAR DYNAMICS : 0
 -------------------------------------------
              searching radius is (Bohr)) = 25.3
         searching radius unit is (Bohr)) = 1.89
1631088
                                 init_chg = atomic
 DONE : INIT SCF Time : 10.5849 (SEC)


 LCAO ALGORITHM --------------- ION=   1  ELEC=   1--------------------------------

 Density error is 0.274343289422

 LCAO ALGORITHM --------------- ION=   1  ELEC=   2--------------------------------

 Density error is 0.149811622843

 LCAO ALGORITHM --------------- ION=   1  ELEC=   3--------------------------------

 Density error is 0.030398833618

 LCAO ALGORITHM --------------- ION=   1  ELEC=   4--------------------------------

 Density error is 0.0670403585865

 LCAO ALGORITHM --------------- ION=   1  ELEC=   5--------------------------------

 Density error is 0.00944746631366

 LCAO ALGORITHM --------------- ION=   1  ELEC=   6--------------------------------

 Density error is 0.00472916573645

 LCAO ALGORITHM --------------- ION=   1  ELEC=   7--------------------------------

 Density error is 0.00222879587084

 LCAO ALGORITHM --------------- ION=   1  ELEC=   8--------------------------------

 Density error is 0.00172786748188

 LCAO ALGORITHM --------------- ION=   1  ELEC=   9--------------------------------

 Density error is 0.00126046412551

 LCAO ALGORITHM --------------- ION=   1  ELEC=  10--------------------------------

 Density error is 0.000541802961947

 LCAO ALGORITHM --------------- ION=   1  ELEC=  11--------------------------------

 Density error is 0.000287113625563

 LCAO ALGORITHM --------------- ION=   1  ELEC=  12--------------------------------

 Density error is 8.94849666305e-05

 LCAO ALGORITHM --------------- ION=   1  ELEC=  13--------------------------------

 Density error is 2.32264214925e-05

 LCAO ALGORITHM --------------- ION=   1  ELEC=  14--------------------------------

 Density error is 9.25972801391e-06

 LCAO ALGORITHM --------------- ION=   1  ELEC=  15--------------------------------

 Density error is 7.8996948916e-06

 LCAO ALGORITHM --------------- ION=   1  ELEC=  16--------------------------------

 Density error is 2.74223124426e-06

 LCAO ALGORITHM --------------- ION=   1  ELEC=  17--------------------------------

 Density error is 1.86635123396e-06

 LCAO ALGORITHM --------------- ION=   1  ELEC=  18--------------------------------

 Density error is 9.82011831238e-07

 charge density convergence is achieved
 final etot is -9452.23280409 eV

 ><><><><><><><><><><><><><><><><><><><><><><><><><><><><><><><><><><><

    TOTAL-FORCE (eV/Angstrom)

 ><><><><><><><><><><><><><><><><><><><><><><><><><><><><><><><><><><><

     atom              x              y              z
      Si1         +0.53936576         -0.34649224          +1.2537584
      Si2          +0.2248839           +0.973719          +1.0857458
      Si3         +0.73214468          +1.0009814          +1.3643788
      Si4         -0.50287905         +0.24846297          -0.5219341
      Si5        -0.064676602         -0.89454379        +0.013576785
      Si6          -0.6418104          -1.2071401        -0.033453586
      Si7         +0.60209916        -0.088776372         +0.95012077
      Si8         -0.28689102         +0.71821243        -0.084136358
      Si9         +0.34921526          +1.3850009         +0.52111507
     Si10         -0.58466628         +0.71011918          -4.0731461
     Si11         -0.43034594         -0.87116091          -3.7229481
     Si12         -0.64245847         -0.84928014          -4.5036446
     Si13         +0.94784246         +0.19892254          +1.4987767
     Si14         +0.14587029       -0.0028571335         +0.96019632
     Si15        -0.011772894          +0.9341558         +0.50669315
     Si16         -0.17592108         +0.35614502          -0.4340302
     Si17         +0.16271783         +0.10836997          +0.2829611
     Si18         -0.39970507           -0.548305         -0.44145784
     Si19         +0.31415646        -0.011199052         +0.93630103
     Si20         +0.31426785         +0.40222965         -0.35678813
     Si21         +0.15856113         +0.73373066        +0.081366492
     Si22         -0.61566079          -0.4970514          -3.4680074
     Si23         -0.18110096         -0.11503274          -3.2116043
     Si24        +0.078583579         -0.66651209          -4.0708638
     Si25        +0.038504187           -0.183575          +1.2047629
     Si26         +0.11004247         -0.31091606         +0.80077305
     Si27         +0.35852905        -0.069844876         +0.88127648
     Si28         +0.12828406          +0.6628108          +0.1495849
     Si29         +0.36638118         +0.44042523         +0.36288087
     Si30         -0.30474509          +0.4028991         -0.16657484
     Si31        -0.051635004         -0.12290362         -0.27012218
     Si32        +0.093571022         -0.44462779         +0.71374383
     Si33         -0.32425199         -0.11931726         +0.25313316
     Si34          -0.1142166         +0.70802907          -4.1402286
     Si35        +0.083164714         +0.38201602          -3.0025416
     Si36         -0.20093824         +0.10568904          -3.2616534
       C1         +0.52858845        +0.094303277          +0.1720645
       C2        +0.064720576         +0.93639706         -0.30697788
       C3         +0.54390134          +1.0700315         +0.37550072
       C4          -0.3700462        -0.070980993         -0.38960469
       C5         +0.19696745          -1.1957977         +0.17238528
       C6         -0.90110631          -1.1207015          -0.5835377
       C7         +0.33541564         -0.56923187         -0.52988446
       C8         +0.35228727         +0.81504477         -0.21516557
       C9         +0.12227397         +0.87097032         +0.30712136
      C10          -0.6796218        +0.024492404          +2.5833112
      C11        -0.031117121         -0.74553486          +3.3010088
      C12         -0.63459867         -0.85398455          +3.3140109
      C13         +0.51398247          -0.5558486         +0.20722288
      C14         -0.19364892         -0.48429431         -0.54014914
      C15        +0.016677692         +0.69503274        +0.067555579
      C16         -0.46342427        +0.062989248         -0.61729771
      C17        -0.047688497        -0.065932817         +0.13567485
      C18         -0.42639131         -0.88899708         +0.10602442
      C19         +0.63223572        -0.067553953          -0.3602157
      C20          -0.3485856         -0.32891107         -0.54680372
      C21         +0.31675224         +0.56222298         -0.23835409
      C22         -0.77793046        +0.036964748          +2.3231608
      C23       -0.0082148717         +0.27815056          +3.0624051
      C24         -0.02133575          -0.9466814          +3.8633594
      C25         +0.39493365         -0.43363153         -0.32459767
      C26         -0.40248548         -0.43942817         -0.36618597
      C27        -0.099046576        -0.035325066         -0.30734039
      C28         +0.27305385        +0.030136462         +0.19624793
      C29         +0.34582743         +0.35847868         -0.66493833
      C30         +0.20013312        -0.038795467         -0.03229325
      C31         -0.26663662         -0.42013724         -0.29777275
      C32         -0.18566563         -0.36251797         -0.80221756
      C33         +0.21167757        +0.029528402         -0.68411186
      C34        +0.028080275        +0.040320121          +3.5898197
      C35          +0.4855928         +0.28163255          +2.7937675
      C36        +0.079933023         +0.31520712           +3.178797


 ><><><><><><><><><><><><><><><><><><><><><><><><><><><><><><><><><><><

 TOTAL-STRESS (KBAR)

 ><><><><><><><><><><><><><><><><><><><><><><><><><><><><><><><><><><><

              +26.293843             -15.142305             +22.978135
              -15.142305             -62.846680             +17.273554
              +22.978135             +17.273554            +142.229084
 TOTAL-PRESSURE: +35.225416 KBAR


 ------------------------------------------------------------------------------------------------
 Energy              Potential           Kinetic             Temperature         Pressure (KBAR)     
 -347.35965          -347.36302          +0.0033726584       +10                 +35.355248          
 ------------------------------------------------------------------------------------------------

output Pressure for check!
Virtual Pressure is +35.355248 Kbar 
Virial Term is +35.225416 Kbar 
Kenetic Term is +0.12983191 Kbar 


 ><><><><><><><><><><><><><><><><><><><><><><><><><><><><><><><><><><><

 MD STRESS (KBAR)

 ><><><><><><><><><><><><><><><><><><><><><><><><><><><><><><><><><><><

+26.413802     -15.164988     +22.979191     
-15.164988     -62.723203     +17.253475     
+22.979191     +17.253475     +142.37514     



 -------------------------------------------
 STEP OF MOLECULAR DYNAMICS : 1
 -------------------------------------------
 NEW-OLD atomic charge density approx. for the potential !
 searching radius is (Bohr))              = +25.29
 searching radius unit is (Bohr))         = +1.8897261
+1629814
 DONE : INIT SCF Time : +2129.6 (SEC)


 LCAO ALGORITHM --------------- ION=+2    ELEC=+1  --------------------------------

 Density error is +0.000504758414947

 LCAO ALGORITHM --------------- ION=+2    ELEC=+2  --------------------------------

 Density error is +0.000462193189266

 LCAO ALGORITHM --------------- ION=+2    ELEC=+3  --------------------------------

 Density error is +0.000419310632089

 LCAO ALGORITHM --------------- ION=+2    ELEC=+4  --------------------------------

 Density error is +9.11503172786e-05

 LCAO ALGORITHM --------------- ION=+2    ELEC=+5  --------------------------------

 Density error is +3.3211463776e-05

 LCAO ALGORITHM --------------- ION=+2    ELEC=+6  --------------------------------

 Density error is +2.0098021272e-05

 LCAO ALGORITHM --------------- ION=+2    ELEC=+7  --------------------------------

 Density error is +7.58704430496e-06

 LCAO ALGORITHM --------------- ION=+2    ELEC=+8  --------------------------------

 Density error is +2.25245987109e-06

 LCAO ALGORITHM --------------- ION=+2    ELEC=+9  --------------------------------

 Density error is +1.33133512681e-06

 LCAO ALGORITHM --------------- ION=+2    ELEC=+10 --------------------------------

 Density error is +3.79016794343e-07

 charge density convergence is achieved
 final etot is -9452.31194621 eV

 ><><><><><><><><><><><><><><><><><><><><><><><><><><><><><><><><><><><

    TOTAL-FORCE (eV/Angstrom)

 ><><><><><><><><><><><><><><><><><><><><><><><><><><><><><><><><><><><

 atom    x              y              z              
 Si1     +0.51257227         -0.32922593         +1.2306022          
 Si2     +0.22766308         +0.9885193          +1.0838496          
 Si3     +0.72763198         +0.97020082         +1.3645691          
 Si4     -0.5247128          +0.28773474         -0.52590367         
 Si5     -0.067378444        -0.90200394         +0.0041323775       
 Si6     -0.66455278         -1.2131027          -0.031402419        
 Si7     +0.59510097         -0.088617516        +0.94220407         
 Si8     -0.29798942         +0.70857678         -0.092600357        
 Si9     +0.33686882         +1.380706           +0.52602651         
 Si10    -0.5715459          +0.69050098         -4.0347129          
 Si11    -0.43497159         -0.89090551         -3.6518156          
 Si12    -0.64223768         -0.83402102         -4.437721           
 Si13    +0.93156415         +0.19799055         +1.4977452          
 Si14    +0.14037013         -0.0068818562       +0.95097202         
 Si15    -0.015922318        +0.94943944         +0.54054107         
 Si16    -0.15956483         +0.36717255         -0.45630049         
 Si17    +0.17278354         +0.09220086         +0.24965477         
 Si18    -0.39881384         -0.5555763          -0.44928002         
 Si19    +0.30773454         -0.019275669        +0.9249859          
 Si20    +0.29505803         +0.39274609         -0.34800367         
 Si21    +0.17202613         +0.74962151         +0.093571514        
 Si22    -0.6397929          -0.50388143         -3.3911543          
 Si23    -0.18389028         -0.12234068         -3.1321734          
 Si24    +0.050162188        -0.67377406         -3.9800356          
 Si25    +0.047123869        -0.19325563         +1.2188656          
 Si26    +0.1106387          -0.33047125         +0.79681067         
 Si27    +0.35802492         -0.065800756        +0.88557786         
 Si28    +0.14710183         +0.64998004         +0.14828687         
 Si29    +0.36747909         +0.4609109          +0.34639106         
 Si30    -0.29437441         +0.39550563         -0.17287691         
 Si31    -0.070742468        -0.10871493         -0.29339532         
 Si32    +0.13401965         -0.45384892         +0.69071168         
 Si33    -0.32921121         -0.10023259         +0.21302367         
 Si34    -0.12556372         +0.70725593         -4.0103336          
 Si35    +0.065467204        +0.380754           -2.9112617          
 Si36    -0.21967847         +0.087002407        -3.2049771          
 C1      +0.55672421         +0.10586332         +0.1946696          
 C2      +0.068721246        +0.91957646         -0.26980047         
 C3      +0.55813056         +1.0753454          +0.38806376         
 C4      -0.37158955         -0.096856859        -0.38265397         
 C5      +0.22046728         -1.1855226          +0.1729998          
 C6      -0.91702766         -1.1097515          -0.57910145         
 C7      +0.33046577         -0.56965728         -0.51776145         
 C8      +0.368554           +0.81775865         -0.22644126         
 C9      +0.097892775        +0.87435167         +0.31017029         
 C10     -0.67252539         +0.042231837        +2.5305358          
 C11     -0.0363212          -0.73387546         +3.210024           
 C12     -0.61246204         -0.8557199          +3.2544566          
 C13     +0.49228625         -0.57687057         +0.22431681         
 C14     -0.20948643         -0.47833919         -0.49467943         
 C15     +0.0076191177       +0.69706696         +0.061709949        
 C16     -0.46644645         +0.076783559        -0.58168913         
 C17     -0.024527239        -0.07408073         +0.17240163         
 C18     -0.44299889         -0.89833397         +0.10064561         
 C19     +0.65792568         -0.066490357        -0.36599803         
 C20     -0.33804985         -0.31110673         -0.57582741         
 C21     +0.31775174         +0.56706593         -0.24573066         
 C22     -0.75075478         +0.06339118         +2.2533227          
 C23     -0.00085160425      +0.27853107         +2.9741269          
 C24     -0.024861142        -0.94001484         +3.76563            
 C25     +0.37887799         -0.41780473         -0.31468154         
 C26     -0.38580142         -0.43606036         -0.34396647         
 C27     -0.10847138         -0.067575802        -0.29704763         
 C28     +0.28493034         +0.02449941         +0.18138183         
 C29     +0.33905669         +0.34399327         -0.67438918         
 C30     +0.20463982         -0.022391602        -0.018186775        
 C31     -0.24588055         -0.41795228         -0.28182821         
 C32     -0.17604335         -0.36389544         -0.8084581          
 C33     +0.22655783         +0.054706491        -0.66105321         
 C34     +0.046008539        +0.024660491        +3.4318961          
 C35     +0.48689086         +0.29017079         +2.6939111          
 C36     +0.082150176        +0.30141589         +3.1344583          


 ><><><><><><><><><><><><><><><><><><><><><><><><><><><><><><><><><><><

 TOTAL-STRESS (KBAR)

 ><><><><><><><><><><><><><><><><><><><><><><><><><><><><><><><><><><><

 +26.388674             -15.150902             +23.004463             
 -15.150902             -62.829210             +17.332469             
 +23.004463             +17.332469             +140.965472            
 TOTAL-PRESSURE: +34.841645 KBAR


 ------------------------------------------------------------------------------------------------
 Energy              Potential           Kinetic             Temperature         Pressure (KBAR)     
 -347.35776          -347.36593          +0.0081724742       +24.23155           +35.156248          
 ------------------------------------------------------------------------------------------------

output Pressure for check!
Virtual Pressure is +35.156248 Kbar 
Virial Term is +34.841645 Kbar 
Kenetic Term is +0.31460286 Kbar 


 ><><><><><><><><><><><><><><><><><><><><><><><><><><><><><><><><><><><

 MD STRESS (KBAR)

 ><><><><><><><><><><><><><><><><><><><><><><><><><><><><><><><><><><><

+26.643446     -15.133507     +23.010915     
-15.133507     -62.448813     +17.32967      
+23.010915     +17.32967      +141.27411     



 -------------------------------------------
 STEP OF MOLECULAR DYNAMICS : 2
 -------------------------------------------
 first order charge density extrapolation !
 searching radius is (Bohr))              = +25.29
 searching radius unit is (Bohr))         = +1.8897261
+1629004
 DONE : INIT SCF Time : +3329.92 (SEC)


 LCAO ALGORITHM --------------- ION=+3    ELEC=+1  --------------------------------

 Density error is +0.00156845751728

 LCAO ALGORITHM --------------- ION=+3    ELEC=+2  --------------------------------

 Density error is +0.000978675423014

 LCAO ALGORITHM --------------- ION=+3    ELEC=+3  --------------------------------

 Density error is +0.000831018897885

 LCAO ALGORITHM --------------- ION=+3    ELEC=+4  --------------------------------

 Density error is +0.000196489723785

 LCAO ALGORITHM --------------- ION=+3    ELEC=+5  --------------------------------

 Density error is +0.000126015757419

 LCAO ALGORITHM --------------- ION=+3    ELEC=+6  --------------------------------

 Density error is +5.39756933993e-05

 LCAO ALGORITHM --------------- ION=+3    ELEC=+7  --------------------------------

 Density error is +2.46351649963e-05

 LCAO ALGORITHM --------------- ION=+3    ELEC=+8  --------------------------------

 Density error is +5.71283690479e-06

 LCAO ALGORITHM --------------- ION=+3    ELEC=+9  --------------------------------

 Density error is +1.73319861706e-06

 LCAO ALGORITHM --------------- ION=+3    ELEC=+10 --------------------------------

 Density error is +5.69858796852e-07

 charge density convergence is achieved
 final etot is -9452.40422052 eV

 ><><><><><><><><><><><><><><><><><><><><><><><><><><><><><><><><><><><

    TOTAL-FORCE (eV/Angstrom)

 ><><><><><><><><><><><><><><><><><><><><><><><><><><><><><><><><><><><

 atom    x              y              z              
 Si1     +0.4695874          -0.27575126         +1.3128819          
 Si2     +0.23248629         +0.98275836         +1.083261           
 Si3     +0.7305891          +0.99562024         +1.3730998          
 Si4     -0.5250106          +0.29924312         -0.59218672         
 Si5     -0.10503247         -0.93019963         +0.041854859        
 Si6     -0.70807153         -1.1989733          -0.094487853        
 Si7     +0.59417741         -0.06949682         +0.87897704         
 Si8     -0.31629269         +0.6597033          -0.13424355         
 Si9     +0.29352096         +1.3440597          +0.48454437         
 Si10    -0.55065085         +0.62444442         -3.8504029          
 Si11    -0.49662188         -0.92417971         -3.5730637          
 Si12    -0.68505276         -0.83325749         -4.2118295          
 Si13    +0.93550308         +0.21000477         +1.4910085          
 Si14    +0.05547761         -0.048561968        +0.93934851         
 Si15    -0.035139503        +0.92485615         +0.57706505         
 Si16    -0.20290082         +0.31422019         -0.41533598         
 Si17    +0.18170427         +0.22291625         +0.20682338         
 Si18    -0.43593526         -0.60273964         -0.46485948         
 Si19    +0.31975838         +0.019217128        +0.90686148         
 Si20    +0.36088733         +0.3627712          -0.38178327         
 Si21    +0.17892381         +0.70156614         +0.10020818         
 Si22    -0.56357941         -0.45174259         -3.3425935          
 Si23    -0.13827252         -0.13792054         -3.1225753          
 Si24    +0.022829287        -0.70334141         -3.8812122          
 Si25    +0.021236088        -0.29771982         +1.2662878          
 Si26    +0.16895004         -0.31531311         +0.77856042         
 Si27    +0.41534646         +0.0092387864       +0.85812552         
 Si28    +0.11076691         +0.63774714         +0.18383912         
 Si29    +0.33779831         +0.41863211         +0.31797866         
 Si30    -0.35163935         +0.35327037         -0.18111186         
 Si31    -0.066028981        -0.10402024         -0.26617355         
 Si32    +0.090158779        -0.4880284          +0.66256347         
 Si33    -0.39310732         -0.07904372         +0.24756045         
 Si34    -0.17058561         +0.67815379         -4.0011914          
 Si35    -0.041360234        +0.36125739         -2.9615986          
 Si36    -0.29438046         +0.11660145         -3.1446844          
 C1      +0.55457072         +0.13452677         +0.18804326         
 C2      +0.14593495         +0.92381814         -0.22429751         
 C3      +0.55142966         +1.0247746          +0.43777919         
 C4      -0.34327819         -0.094485454        -0.29090274         
 C5      +0.22754907         -1.0996153          +0.14972007         
 C6      -0.92076065         -1.0850588          -0.5516184          
 C7      +0.42288605         -0.58286384         -0.51154728         
 C8      +0.39555269         +0.88339799         -0.20020123         
 C9      +0.19100984         +0.80400979         +0.3276311          
 C10     -0.73262586         -0.030031008        +2.3082333          
 C11     +0.067444528        -0.72268927         +3.097717           
 C12     -0.66746143         -0.86020529         +2.976618           
 C13     +0.56016734         -0.50582139         +0.18487701         
 C14     -0.14178107         -0.52414744         -0.52285102         
 C15     +0.0077274696       +0.72882305         -0.0013110628       
 C16     -0.39874419         +0.010771488        -0.62950989         
 C17     -0.070277006        -0.14253669         +0.25372796         
 C18     -0.37930342         -0.81413016         +0.17295726         
 C19     +0.62124986         -0.021922475        -0.30289612         
 C20     -0.27168582         -0.37456778         -0.47176769         
 C21     +0.38813936         +0.63806351         -0.26434591         
 C22     -0.79141985         -0.025604561        +2.2815135          
 C23     -0.038107959        +0.38795479         +2.8762613          
 C24     -0.037962232        -0.91459471         +3.6641344          
 C25     +0.43085133         -0.46539993         -0.34425041         
 C26     -0.31634232         -0.33788463         -0.29534819         
 C27     -0.1723409          -0.10950414         -0.25961466         
 C28     +0.21430086         +0.13808297         +0.17368261         
 C29     +0.37717694         +0.31859855         -0.66321742         
 C30     +0.21590097         -0.091896338        -0.028456405        
 C31     -0.21318924         -0.30397303         -0.34093827         
 C32     -0.21595646         -0.42953899         -0.8331227          
 C33     +0.12105866         +0.103969           -0.70545            
 C34     +0.10372694         -0.0076689445       +3.4105602          
 C35     +0.4887962          +0.33331873         +2.7373166          
 C36     +0.18572392         +0.33803834         +3.1093586          


 ><><><><><><><><><><><><><><><><><><><><><><><><><><><><><><><><><><><

 TOTAL-STRESS (KBAR)

 ><><><><><><><><><><><><><><><><><><><><><><><><><><><><><><><><><><><

 +26.486335             -14.821023             +22.783212             
 -14.821023             -63.012207             +17.296494             
 +22.783212             +17.296494             +139.625933            
 TOTAL-PRESSURE: +34.366687 KBAR


 ------------------------------------------------------------------------------------------------
 Energy              Potential           Kinetic             Temperature         Pressure (KBAR)     
 -347.34768          -347.36932          +0.021641586        +64.167736          +35.199789          
 ------------------------------------------------------------------------------------------------

output Pressure for check!
Virtual Pressure is +35.199789 Kbar 
Virial Term is +34.366687 Kbar 
Kenetic Term is +0.833102 Kbar 


 ><><><><><><><><><><><><><><><><><><><><><><><><><><><><><><><><><><><

 MD STRESS (KBAR)

 ><><><><><><><><><><><><><><><><><><><><><><><><><><><><><><><><><><><

+27.321317     -14.798185     +22.76294      
-14.798185     -62.292172     +17.215776     
+22.76294      +17.215776     +140.57022     



 -------------------------------------------
 STEP OF MOLECULAR DYNAMICS : 3
 -------------------------------------------
 second order charge density extrapolation !
 searching radius is (Bohr))              = +25.29
 searching radius unit is (Bohr))         = +1.8897261
+1630820
 DONE : INIT SCF Time : +4492.57 (SEC)


 LCAO ALGORITHM --------------- ION=+4    ELEC=+1  --------------------------------

 Density error is +0.00199868723104

 LCAO ALGORITHM --------------- ION=+4    ELEC=+2  --------------------------------

 Density error is +0.0013825495833

 LCAO ALGORITHM --------------- ION=+4    ELEC=+3  --------------------------------

 Density error is +0.00132761098653

 LCAO ALGORITHM --------------- ION=+4    ELEC=+4  --------------------------------

 Density error is +0.000309977162189

 LCAO ALGORITHM --------------- ION=+4    ELEC=+5  --------------------------------

 Density error is +0.000159891424224

 LCAO ALGORITHM --------------- ION=+4    ELEC=+6  --------------------------------

 Density error is +6.89852253907e-05

 LCAO ALGORITHM --------------- ION=+4    ELEC=+7  --------------------------------

 Density error is +2.90178666633e-05

 LCAO ALGORITHM --------------- ION=+4    ELEC=+8  --------------------------------

 Density error is +7.95694749165e-06

 LCAO ALGORITHM --------------- ION=+4    ELEC=+9  --------------------------------

 Density error is +3.51031668562e-06

 LCAO ALGORITHM --------------- ION=+4    ELEC=+10 --------------------------------

 Density error is +1.41293403204e-06

 LCAO ALGORITHM --------------- ION=+4    ELEC=+11 --------------------------------

 Density error is +6.25751541561e-07

 charge density convergence is achieved
 final etot is -9452.55298616 eV

 ><><><><><><><><><><><><><><><><><><><><><><><><><><><><><><><><><><><

    TOTAL-FORCE (eV/Angstrom)

 ><><><><><><><><><><><><><><><><><><><><><><><><><><><><><><><><><><><

 atom    x              y              z              
 Si1     +0.44187804         -0.097686653        +1.3048448          
 Si2     +0.14991853         +1.0017376          +1.0263161          
 Si3     +0.72599113         +1.0230775          +1.3640595          
 Si4     -0.46867928         +0.28694605         -0.63413626         
 Si5     -0.16912228         -1.0339265          +0.025516843        
 Si6     -0.67920053         -1.2326701          -0.077901169        
 Si7     +0.66756212         -0.096334656        +0.87500297         
 Si8     -0.22482942         +0.60419243         -0.21677202         
 Si9     +0.36437807         +1.3337424          +0.41068038         
 Si10    -0.54414042         +0.59642983         -3.8057292          
 Si11    -0.57643126         -0.89263172         -3.4473383          
 Si12    -0.65933731         -0.81255709         -4.0607681          
 Si13    +0.97846609         +0.19985461         +1.5968289          
 Si14    -0.048884663        -0.09479588         +0.8694475          
 Si15    -0.0026278317       +0.95871866         +0.62421825         
 Si16    -0.31057276         +0.41861448         -0.39129736         
 Si17    +0.20809821         +0.21621291         +0.099387783        
 Si18    -0.46044481         -0.58446594         -0.55587275         
 Si19    +0.19617456         -0.012175572        +0.95804508         
 Si20    +0.3890272          +0.49042157         -0.25313869         
 Si21    +0.215837           +0.71200077         +0.11289988         
 Si22    -0.60920307         -0.56062674         -3.2051428          
 Si23    -0.1514599          -0.047998327        -2.8673587          
 Si24    +0.041821087        -0.71937608         -3.57208            
 Si25    +0.02456955         -0.20898716         +1.2382641          
 Si26    +0.11161879         -0.23223048         +0.74015694         
 Si27    +0.34895663         -0.0023648427       +0.86448133         
 Si28    -0.010413188        +0.61279057         +0.21490551         
 Si29    +0.25906983         +0.32953773         +0.19726609         
 Si30    -0.45294383         +0.42206746         -0.23939067         
 Si31    -0.17875464         -0.044615145        -0.19618647         
 Si32    +0.1831143          -0.53029044         +0.66260808         
 Si33    -0.34826802         +0.013116829        +0.31523653         
 Si34    -0.24113166         +0.64803791         -3.6769667          
 Si35    -0.10116114         +0.29903006         -2.7883573          
 Si36    -0.33751973         +0.090366073        -2.9253686          
 C1      +0.54420562         +0.15812976         +0.21300324         
 C2      +0.23872244         +1.0189668          -0.19382059         
 C3      +0.60526949         +0.9722724          +0.55164769         
 C4      -0.49661085         -0.11003127         -0.21786204         
 C5      +0.19613887         -1.0514947          +0.20074545         
 C6      -1.0535013          -1.1074662          -0.50808521         
 C7      +0.51956963         -0.61255486         -0.47912627         
 C8      +0.47502704         +0.89704898         -0.13684788         
 C9      +0.24514947         +0.7957498          +0.4471918          
 C10     -0.72107995         +0.04417589         +2.2179025          
 C11     +0.14207147         -0.80726563         +2.8566712          
 C12     -0.69994926         -0.9910867          +2.7630576          
 C13     +0.67828453         -0.36293086         +0.19166849         
 C14     -0.074509914        -0.61442518         -0.36453441         
 C15     +0.038692303        +0.73129735         -0.011790649        
 C16     -0.3965673          +0.015949581        -0.61130163         
 C17     -0.15006302         -0.18724899         +0.15970144         
 C18     -0.29455403         -0.85667799         +0.20277109         
 C19     +0.6815445          +0.14327721         -0.39582805         
 C20     -0.23200827         -0.42740427         -0.62790837         
 C21     +0.30871918         +0.59839291         -0.36501649         
 C22     -0.81329053         -0.085238998        +2.1227054          
 C23     -0.025550608        +0.34329056         +2.666266           
 C24     +0.072886127        -0.93122791         +3.3979542          
 C25     +0.52516504         -0.33362473         -0.22056889         
 C26     -0.38732451         -0.45144431         -0.30907036         
 C27     -0.1117335          -0.17957045         -0.17603131         
 C28     +0.27863608         +0.050328325        +0.22765073         
 C29     +0.34112888         +0.39958756         -0.55308125         
 C30     +0.302512           -0.15167628         -0.13383265         
 C31     -0.16534545         -0.33371628         -0.45455672         
 C32     -0.33265606         -0.31142803         -0.79909089         
 C33     +0.099652229        +0.059332892        -0.81795811         
 C34     +0.20553257         +0.020578256        +3.1340164          
 C35     +0.40296116         +0.31044048         +2.4899678          
 C36     +0.32152045         +0.29453275         +2.9470295          


 ><><><><><><><><><><><><><><><><><><><><><><><><><><><><><><><><><><><

 TOTAL-STRESS (KBAR)

 ><><><><><><><><><><><><><><><><><><><><><><><><><><><><><><><><><><><

 +27.645114             -14.240353             +22.659405             
 -14.240353             -63.108339             +17.718151             
 +22.659405             +17.718151             +136.475960            
 TOTAL-PRESSURE: +33.670911 KBAR


 ------------------------------------------------------------------------------------------------
 Energy              Potential           Kinetic             Temperature         Pressure (KBAR)     
 -347.34846          -347.37479          +0.026334366        +78.081923          +34.684664          
 ------------------------------------------------------------------------------------------------

output Pressure for check!
Virtual Pressure is +34.684664 Kbar 
Virial Term is +33.670911 Kbar 
Kenetic Term is +1.0137526 Kbar 


 ><><><><><><><><><><><><><><><><><><><><><><><><><><><><><><><><><><><

 MD STRESS (KBAR)

 ><><><><><><><><><><><><><><><><><><><><><><><><><><><><><><><><><><><

+28.54309      -14.511247     +22.544635     
-14.511247     -62.029172     +17.785297     
+22.544635     +17.785297     +137.54007     



 -------------------------------------------
 STEP OF MOLECULAR DYNAMICS : 4
 -------------------------------------------
 second order charge density extrapolation !
 searching radius is (Bohr))              = +25.29
 searching radius unit is (Bohr))         = +1.8897261
+1630534
 DONE : INIT SCF Time : +5767.47 (SEC)


 LCAO ALGORITHM --------------- ION=+5    ELEC=+1  --------------------------------

 Density error is +0.00245288620162

 LCAO ALGORITHM --------------- ION=+5    ELEC=+2  --------------------------------

 Density error is +0.00153185373026

 LCAO ALGORITHM --------------- ION=+5    ELEC=+3  --------------------------------

 Density error is +0.0014445494572

 LCAO ALGORITHM --------------- ION=+5    ELEC=+4  --------------------------------

 Density error is +0.000327431287764

 LCAO ALGORITHM --------------- ION=+5    ELEC=+5  --------------------------------

 Density error is +0.000215261727811

 LCAO ALGORITHM --------------- ION=+5    ELEC=+6  --------------------------------

 Density error is +9.13202178423e-05

 LCAO ALGORITHM --------------- ION=+5    ELEC=+7  --------------------------------

 Density error is +3.55739314513e-05

 LCAO ALGORITHM --------------- ION=+5    ELEC=+8  --------------------------------

 Density error is +7.64856199452e-06

 LCAO ALGORITHM --------------- ION=+5    ELEC=+9  --------------------------------

 Density error is +3.17636200813e-06

 LCAO ALGORITHM --------------- ION=+5    ELEC=+10 --------------------------------

 Density error is +1.58043690592e-06

 LCAO ALGORITHM --------------- ION=+5    ELEC=+11 --------------------------------

 Density error is +6.61371646773e-07

 charge density convergence is achieved
 final etot is -9452.60263782 eV

 ><><><><><><><><><><><><><><><><><><><><><><><><><><><><><><><><><><><

    TOTAL-FORCE (eV/Angstrom)

 ><><><><><><><><><><><><><><><><><><><><><><><><><><><><><><><><><><><

 atom    x              y              z              
 Si1     +0.43731332         -0.13297412         +1.2779894          
 Si2     +0.35342027         +0.95946854         +1.1022851          
 Si3     +0.78815266         +1.0601701          +1.4170072          
 Si4     -0.40105815         +0.3098843          -0.60184061         
 Si5     -0.18276689         -1.0695166          +0.03141562         
 Si6     -0.58262745         -1.3138291          -0.19349617         
 Si7     +0.67918917         -0.078686396        +0.93637485         
 Si8     -0.097976588        +0.51054558         -0.17233594         
 Si9     +0.23288227         +1.3707881          +0.3672477          
 Si10    -0.555003           +0.57313712         -3.7404633          
 Si11    -0.56550749         -0.8493041          -3.3906682          
 Si12    -0.71873348         -0.836046           -3.8513519          
 Si13    +0.84458842         +0.22557559         +1.6634328          
 Si14    -0.021433112        -0.10157028         +1.0271625          
 Si15    +0.006016502        +0.9725373          +0.77632197         
 Si16    -0.40600416         +0.45920591         -0.4554466          
 Si17    +0.18083747         +0.21266843         +0.062010262        
 Si18    -0.35511239         -0.65721741         -0.64427785         
 Si19    +0.34732075         -0.061364309        +0.98805621         
 Si20    +0.32042985         +0.438092           -0.30123659         
 Si21    +0.2622729          +0.63789941         +0.046161301        
 Si22    -0.64886669         -0.56116831         -3.0201967          
 Si23    -0.2748859          +0.082292694        -2.8586976          
 Si24    -0.018465588        -0.66692772         -3.5299708          
 Si25    +0.10361232         -0.2344135          +1.1157476          
 Si26    +0.2039287          -0.24866178         +0.73555485         
 Si27    +0.39732523         +0.11834001         +0.75008282         
 Si28    -0.021778246        +0.76882444         +0.20050557         
 Si29    +0.28707118         +0.47386832         +0.24394137         
 Si30    -0.45285939         +0.49338209         -0.11399542         
 Si31    -0.17394893         -0.14991312         -0.31285282         
 Si32    +0.069024937        -0.55374747         +0.70313901         
 Si33    -0.38457342         +0.13369504         +0.32825497         
 Si34    -0.28379756         +0.60603559         -3.5155341          
 Si35    -0.087119972        +0.3108619          -2.7229538          
 Si36    -0.21470218         +0.026557681        -2.9646359          
 C1      +0.62325624         +0.069359326        +0.29289131         
 C2      +0.096948001        +1.0638812          -0.17990579         
 C3      +0.5921636          +0.99788774         +0.44482421         
 C4      -0.62438479         -0.25995718         -0.1031106          
 C5      +0.33919905         -0.93024884         +0.12923376         
[...]
 C14     +0.12457234         -0.8033685          +0.049959578        
 C15     +0.055799405        +0.28122994         -0.30844132         
 C16     -0.35735853         -0.44092725         -0.76923046         
 C17     +0.15826431         +0.17199641         +0.3665703          
 C18     -0.30566331         -0.62535694         +0.89013808         
 C19     +0.950847           +0.20366534         -0.49951607         
 C20     -0.080241201        -0.5871229          -0.15245281         
 C21     +0.31602304         +0.82717933         -0.45849784         
 C22     -1.1130674          -0.14720036         +1.5611073          
 C23     -0.23443527         +0.34516731         +2.6977557          
 C24     -0.53393157         -0.80204102         +1.8696746          
 C25     +0.15361298         -0.41151135         -0.11948765         
 C26     -0.74543416         -0.056082372        +0.076461609        
 C27     -0.63631925         -0.39393084         +0.11674473         
 C28     +0.2187626          +0.21466272         -0.33280643         
 C29     +0.36515797         +0.15098318         -0.59067066         
 C30     +0.0043480685       -0.2888083          +0.047587422        
 C31     -0.12876365         -0.59287193         +0.045463112        
 C32     -0.02364949         -0.17997967         -0.67501029         
 C33     -0.10606924         +0.18465199         -0.65291512         
 C34     +0.14418186         +0.15060202         +2.5826956          
 C35     +0.46685249         +1.0667785          +1.3006474          
 C36     +0.077819093        +0.34343983         +2.921635           


 ><><><><><><><><><><><><><><><><><><><><><><><><><><><><><><><><><><><

 TOTAL-STRESS (KBAR)

 ><><><><><><><><><><><><><><><><><><><><><><><><><><><><><><><><><><><

 +26.463004             -11.155372             +25.189480             
 -11.155372             -61.529823             +17.255851             
 +25.189480             +17.255851             +130.077046            
 TOTAL-PRESSURE: +31.670076 KBAR


 ------------------------------------------------------------------------------------------------
 Energy              Potential           Kinetic             Temperature         Pressure (KBAR)     
 -347.30635          -347.38679          +0.080446081        +238.52425          +34.766882          
 ------------------------------------------------------------------------------------------------

output Pressure for check!
Virtual Pressure is +34.766882 Kbar 
Virial Term is +31.670076 Kbar 
Kenetic Term is +3.096806 Kbar 


 ><><><><><><><><><><><><><><><><><><><><><><><><><><><><><><><><><><><

 MD STRESS (KBAR)

 ><><><><><><><><><><><><><><><><><><><><><><><><><><><><><><><><><><><

+29.023004     -11.295891     +25.689195     
-11.295891     -58.495783     +17.068091     
+25.689195     +17.068091     +133.77342     



 -------------------------------------------
 STEP OF MOLECULAR DYNAMICS : 10
 -------------------------------------------
 second order charge density extrapolation !
 searching radius is (Bohr))              = +25.29
 searching radius unit is (Bohr))         = +1.8897261
+1629724
 DONE : INIT SCF Time : +14301.7 (SEC)


 LCAO ALGORITHM --------------- ION=+11   ELEC=+1  --------------------------------

 Density error is +0.00364305665511

 LCAO ALGORITHM --------------- ION=+11   ELEC=+2  --------------------------------

 Density error is +0.00224587899777

 LCAO ALGORITHM --------------- ION=+11   ELEC=+3  --------------------------------

 Density error is +0.00208184123212

 LCAO ALGORITHM --------------- ION=+11   ELEC=+4  --------------------------------

 Density error is +0.000537079548255

 LCAO ALGORITHM --------------- ION=+11   ELEC=+5  --------------------------------

 Density error is +0.000345827541676

 LCAO ALGORITHM --------------- ION=+11   ELEC=+6  --------------------------------

 Density error is +0.000125252557229

 LCAO ALGORITHM --------------- ION=+11   ELEC=+7  --------------------------------

 Density error is +5.07647272197e-05

 LCAO ALGORITHM --------------- ION=+11   ELEC=+8  --------------------------------

 Density error is +1.18362612512e-05

 LCAO ALGORITHM --------------- ION=+11   ELEC=+9  --------------------------------

 Density error is +5.46410621066e-06

 LCAO ALGORITHM --------------- ION=+11   ELEC=+10 --------------------------------

 Density error is +2.61134134074e-06

 LCAO ALGORITHM --------------- ION=+11   ELEC=+11 --------------------------------

 Density error is +1.08044165258e-06

 LCAO ALGORITHM --------------- ION=+11   ELEC=+12 --------------------------------

 Density error is +3.2072378643e-07

 charge density convergence is achieved
 final etot is -9452.95651303 eV

 ><><><><><><><><><><><><><><><><><><><><><><><><><><><><><><><><><><><

    TOTAL-FORCE (eV/Angstrom)

 ><><><><><><><><><><><><><><><><><><><><><><><><><><><><><><><><><><><

 atom    x              y              z              
 Si1     +0.26419923         -0.43060931         +1.370581           
 Si2     -0.078290102        +1.0184032          +0.9989217          
 Si3     +1.0120152          +1.0954112          +1.6938504          
 Si4     -0.1172994          +0.62346587         -0.78119167         
 Si5     +0.10024535         -0.8013568          -0.22727034         
 Si6     -0.34835424         -1.5685176          -0.61391636         
 Si7     +0.63213049         +0.018683098        +0.50760335         
 Si8     +0.31778037         +0.38457963         -0.33381445         
 Si9     +0.35287318         +1.1706052          +0.062000945        
 Si10    -0.17099337         +0.53958844         -3.5701359          
 Si11    -0.18984382         -0.75732108         -2.5259257          
 Si12    -1.1217728          -1.1527083          -2.7068727          
 Si13    +1.2259356          -0.11325997         +1.3308882          
 Si14    +0.04723012         -0.19093859         +0.56238001         
 Si15    +0.32215451         +0.82613484         +1.2234302          
 Si16    -0.34529278         +0.34365132         -0.64641265         
 Si17    +0.1470872          +0.61392723         +0.15267461         
 Si18    -0.15772461         -0.53387012         -1.0031651          
 Si19    +0.77418714         +0.076915779        +0.60084139         
 Si20    +0.18065954         +0.07239257         -0.53574435         
 Si21    +0.16820493         +0.24286492         -0.036965492        
 Si22    -0.55999782         -0.5951685          -2.6893752          
 Si23    -0.42597178         +0.11891927         -3.2011222          
 Si24    -0.33777967         -0.87158367         -2.6274916          
 Si25    +0.21607307         -0.57888779         +1.0405284          
 Si26    +0.50295512         -0.31399516         +0.75135964         
 Si27    +0.68091711         -0.33655963         +0.87841629         
 Si28    -0.31026592         +0.73212906         +0.32993429         
 Si29    +0.16159377         +0.465769           +0.23690201         
 Si30    -0.57801301         +0.50722853         -0.12952931         
 Si31    +0.12533386         -0.074126094        -0.52984193         
 Si32    -0.031215866        -0.50432029         +0.28029725         
 Si33    -0.60864625         -0.22468858         +0.015520223        
 Si34    -0.25076311         +0.82088681         -2.8073527          
 Si35    +0.13066723         -0.04657336         -1.6207308          
 Si36    -0.50822142         +0.12210455         -2.6599574          
 C1      +0.79972307         -0.0079629117       +0.13887791         
 C2      +0.44693898         +1.2247722          +0.39162415         
 C3      +0.47392168         +0.67329354         +0.36217376         
 C4      -0.95866011         +0.29925692         +0.19995307         
 C5      -0.0094369621       -1.1644712          +0.55210811         
 C6      -0.96617801         -0.78884677         +0.11393372         
 C7      +0.86256954         -0.086549497        -0.75553061         
 C8      +0.34244202         +0.80944267         +0.052263312        
 C9      -0.28027071         +0.69233458         +0.25133597         
 C10     -0.88491486         +0.46656693         +1.6732419          
 C11     +0.095761254        -0.75508376         +2.0409054          
 C12     -0.29208143         -0.86561652         +1.5544632          
 C13     +0.94476747         -0.085435343        +0.62478336         
 C14     +0.21977858         -1.0388871          +0.28984582         
 C15     +0.040718913        +0.45587169         -0.14989944         
 C16     -0.49220277         -0.59460692         -0.59338895         
 C17     +0.26059657         +0.38382629         +0.23283946         
 C18     -0.28202208         -0.58851998         +0.85891064         
 C19     +1.0048986          +0.2481124          -0.36849295         
 C20     -0.12560111         -0.80898885         -0.21557744         
 C21     +0.22975222         +0.8558956          -0.48288663         
 C22     -1.0315585          -0.22159701         +1.6394609          
 C23     -0.27552499         +0.41572831         +2.8582531          
 C24     -0.48815379         -0.6759894          +2.0611895          
 C25     +0.039957999        -0.6414696          -0.1090454          
 C26     -0.98143108         -0.065684361        +0.22265113         
 C27     -0.50129228         -0.56752323         +0.11312846         
 C28     -0.0056613095       +0.36293836         -0.50522489         
 C29     +0.49774801         +0.27088286         -0.50717558         
 C30     -0.093002313        -0.025813713        +0.16086751         
 C31     -0.065342941        -0.68060529         -0.10736133         
 C32     -0.28986869         +0.076756452        -0.64571819         
 C33     +0.018035698        +0.11940178         -0.6497663          
 C34     +0.13262643         +0.3971114          +2.0696544          
 C35     +0.25801232         +0.94493006         +1.0972808          
 C36     +0.13315757         +0.26735388         +2.7410078          


 ><><><><><><><><><><><><><><><><><><><><><><><><><><><><><><><><><><><

 TOTAL-STRESS (KBAR)

 ><><><><><><><><><><><><><><><><><><><><><><><><><><><><><><><><><><><

 +24.545690             -11.834519             +25.674149             
 -11.834519             -60.078372             +17.148559             
 +25.674149             +17.148559             +129.524918            
 TOTAL-PRESSURE: +31.330745 KBAR


 ------------------------------------------------------------------------------------------------
 Energy              Potential           Kinetic             Temperature         Pressure (KBAR)     
 -347.28264          -347.38962          +0.10698035         +317.19889          +35.448999          
 ------------------------------------------------------------------------------------------------

output Pressure for check!
Virtual Pressure is +35.448999 Kbar 
Virial Term is +31.330745 Kbar 
Kenetic Term is +4.1182539 Kbar 


 ><><><><><><><><><><><><><><><><><><><><><><><><><><><><><><><><><><><

 MD STRESS (KBAR)

 ><><><><><><><><><><><><><><><><><><><><><><><><><><><><><><><><><><><

+28.448415     -11.645706     +25.595836     
-11.645706     -55.744028     +16.849976     
+25.595836     +16.849976     +133.64261     




 --------------------------------------------
 !FINAL_ETOT_IS -9452.956513032077 eV
 --------------------------------------------






  |CLASS_NAME---------|NAME---------------|TIME(Sec)-----|CALLS----|AVG------|PER%-------
                       total               +15893         27        +5.9e+02  +1e+02    %
   Driver              driver_line         +15893         1         +1.6e+04  +1e+02    %
   PW_Basis            setup_struc_factor  +1.1954        11        +0.11     +0.0075   %
   ORB_control         read_orb_first      +0.1795        1         +0.18     +0.0011   %
   LCAO_Orbitals       Read_Orbitals       +0.17949       1         +0.18     +0.0011   %
   NOrbital_Lm         extra_uniform       +0.10268       16        +0.0064   +0.00065  %
   ORB_control         set_orb_tables      +8.1314        1         +8.1      +0.051    %
   ORB_gen_tables      gen_tables          +8.1314        1         +8.1      +0.051    %
   ORB_table_phi       init_Table          +6.3777        1         +6.4      +0.04     %
   ORB_table_phi       cal_ST_Phi12_R      +6.348         558       +0.011    +0.04     %
   ORB_table_beta      init_Table_Beta     +1.563         1         +1.6      +0.0098   %
   ORB_table_beta      VNL_PhiBeta_R       +1.5563        168       +0.0093   +0.0098   %
   ppcell_vl           init_vloc           +0.25551       1         +0.26     +0.0016   %
   Run_MD              md_line             +15884         1         +1.6e+04  +1e+02    %
   Langevin            setup               +2118.1        1         +2.1e+03  +13       %
   MD_func             force_stress        +15884         11        +1.4e+03  +1e+02    %
   ESolver_KS_LCAO     Run                 +14725         11        +1.3e+03  +93       %
   ESolver_KS_LCAO     beforescf           +27.938        11        +2.5      +0.18     %
   ESolver_KS_LCAO     beforesolver        +9.9329        11        +0.9      +0.062    %
   ESolver_KS_LCAO     set_matrix_grid     +6.395         11        +0.58     +0.04     %
   Grid_Technique      init                +3.5353        11        +0.32     +0.022    %
   Grid_BigCell        grid_expansion_index+0.91166       22        +0.041    +0.0057   %
   Record_adj          for_2d              +2.5192        11        +0.23     +0.016    %
   Grid_Driver         Find_atom           +18.88         699192    +2.7e-05  +0.12     %
   Charge              atomic_rho          +15.731        21        +0.75     +0.099    %
   PW_Basis            recip2real          +4.8631        765       +0.0064   +0.031    %
   PW_Basis            gathers_scatterp    +3.3647        765       +0.0044   +0.021    %
   Potential           init_pot            +1.0717        11        +0.097    +0.0067   %
   Potential           update_from_charge  +12.602        140       +0.09     +0.079    %
   Potential           cal_v_eff           +12.544        140       +0.09     +0.079    %
   H_Hartree_pw        v_hartree           +1.439         140       +0.01     +0.0091   %
   PW_Basis            real2recip          +4.1265        1164      +0.0035   +0.026    %
   PW_Basis            gatherp_scatters    +1.7633        1164      +0.0015   +0.011    %
   PotXC               cal_v_eff           +10.993        140       +0.079    +0.069    %
   XC_Functional       v_xc                +10.927        140       +0.078    +0.069    %
   HSolverLCAO         solve               +14672         129       +1.1e+02  +92       %
   HamiltLCAO          updateHk            +5372.8        4644      +1.2      +34       %
   OperatorLCAO        init                +4629.6        9288      +0.5      +29       %
   Veff                contributeHk        +4626.5        4644      +1        +29       %
   Gint_interface      cal_gint            +7458.8        269       +28       +47       %
   Gint_interface      cal_gint_vlocal     +3634.2        129       +28       +23       %
   Gint_k              folding_vl_k        +992.34        4644      +0.21     +6.2      %
   Gint_k              Distri              +692.27        4644      +0.15     +4.4      %
   Overlap             contributeHR        +4.735         11        +0.43     +0.03     %
   LCAO_gen_fixedH     calculate_S_no      +4.7349        11        +0.43     +0.03     %
   Ekinetic<OperatorLCAO>contributeHR        +4.8099        11        +0.44     +0.03     %
   Nonlocal<OperatorLCAO>contributeHR        +51.236        11        +4.7      +0.32     %
   LCAO_gen_fixedH     build_Nonlocal_mu_new+160.69        22        +7.3      +1        %
   ORB_gen_tables      snap_psibeta_half   +3.4453        1251783   +2.8e-06  +0.022    %
   OperatorLCAO        folding_fixed       +682.42        4644      +0.15     +4.3      %
   LCAO_nnr            folding_fixedH      +673.52        4644      +0.15     +4.2      %
   HSolverLCAO         hamiltSolvePsiK     +2119.9        4644      +0.46     +13       %
   DiagoElpa           elpa_solve          +2101.3        4644      +0.45     +13       %
   ElecStateLCAO       psiToRho            +7179.5        129       +56       +45       %
   elecstate           cal_dm              +288.73        140       +2.1      +1.8      %
   psiMulPsiMpi        pdgemm              +282.43        5040      +0.056    +1.8      %
    Local_Orbital_wfc  wfc_2d_to_grid      +36.483        4644      +0.0079   +0.23     %
   LCAO_Charge         cal_dk_k            +3600.9        129       +28       +23       %
   Record_adj          for_grid            +0.70695       129       +0.0055   +0.0044   %
   Gint_interface      cal_gint_rho        +3193          129       +25       +20       %
   Charge              mix_rho             +1.9538        118       +0.017    +0.012    %
   Force_Stress_LCAO   getForceStress      +1158.6        11        +1.1e+02  +7.3      %
   Forces              cal_force_loc       +0.94729       11        +0.086    +0.006    %
   Forces              cal_force_ew        +0.89947       11        +0.082    +0.0057   %
   Forces              cal_force_scc       +7.792         11        +0.71     +0.049    %
   Stress_Func         stress_loc          +6.1695        11        +0.56     +0.039    %
   Stress_Func         stress_ewa          +0.40748       11        +0.037    +0.0026   %
   Stress_Func         stress_gga          +0.5144        11        +0.047    +0.0032   %
   Force_LCAO_k        ftable_k            +1141.8        11        +1e+02    +7.2      %
   Force_LCAO_k        allocate_k          +140.9         11        +13       +0.89     %
   Force_LCAO_k        cal_foverlap_k      +38.05         11        +3.5      +0.24     %
   Force_LCAO_k        cal_edm_2d          +37.042        11        +3.4      +0.23     %
   Local_Orbital_Chargecal_dm_R            +12.834        22        +0.58     +0.081    %
   Force_LCAO_k        cal_ftvnl_dphi_k    +0.32756       11        +0.03     +0.0021   %
   Force_LCAO_k        cal_fvl_dphi_k      +631.64        11        +57       +4        %
   Gint_interface      cal_gint_force      +631.64        11        +57       +4        %
   Force_LCAO_k        cal_fvnl_dbeta_k_new+290.97        11        +26       +1.8      %
 ----------------------------------------------------------------------------------------

 CLASS_NAME---------|NAME---------------|MEMORY(MB)--------
                                         +2.799e+04
 ORB_table_phi       Jl(x)               +138.2         
 allocate_pvpR       pvpR_reduced        +89.27         
 LocalOrbital_Charge Density_Matrix      +89.27         
 stress_lo           dSR                 +74.6          
 force_lo            dS                  +37.3          
 force_lo            dTVNL               +37.3          
 Force_LCAO_k        dm2d                +12.43         
 ORB_table_phi       Table_SR&TR         +10.58         
 Grid_Meshcell       index2normal        +8.441         
 Grid_Meshcell       index2ucell         +8.441         
 Charge_Mixing       Rrho                +7.031         
 Charge_Mixing       dRrho               +6.152         
 Charge_Mixing       drho                +6.152         
 LocalOrbital_Coef   wfc_k_grid          +4.181         
 init_meshball       meshball_pos        +3.644         
 atoms_on_grid       which_atom          +2.743         
 atoms_on_grid       which_bigcell       +2.743         
 atoms_on_grid       which_unitcell      +2.743         
 ORB_table_beta      Table_NR            +2.045         
 PW_Basis            struc_fac           +1.313         
 ----------------------------------------------------------

 Start  Time  : Mon May 22 14:16:29 2023
 Finish Time  : Mon May 22 18:41:23 2023
 Total  Time  : 4 h 24 mins 54 secs 
