WARNING: Total thread number on this node mismatches with hardware availability. This may cause poor performance.
Info: Local MPI proc number: 16,OpenMP thread number: 1,Total thread number: 16,Local thread limit: 32
 *********************************************************
 *                                                       *
 *                  WELCOME TO ABACUS v3.0               *
 *                                                       *
 *            'Atomic-orbital Based Ab-initio            *
 *                  Computation at UStc'                 *
 *                                                       *
 *          Website: http://abacus.ustc.edu.cn/          *
 *                                                       *
 *********************************************************
 Mon May 22 14:16:28 2023
 MAKE THE DIR         : OUT.ABACUS/
 MAKE THE STRU DIR    : OUT.ABACUS/STRU/
 UNIFORM GRID DIM     : 120 * 120 * 128
 UNIFORM GRID DIM(BIG): 60 * 60 * 64
 DONE(0.111076   SEC) : SETUP UNITCELL
 DONE(0.120343   SEC) : INIT K-POINTS
 ---------------------------------------------------------
 Molecular Dynamics simulations
 ---------------------------------------------------------
 ENSEMBLE                 : Langevin
 Time interval(fs)        : 1
 ---------------------------------------------------------
 SPIN    KPOINTS         PROCESSORS  NBASE       
 1       36              16          1584        
 ---------------------------------------------------------
 Use Systematically Improvable Atomic bases
 ---------------------------------------------------------
 ELEMENT ORBITALS        NBASE       NATOM       XC          
 Si      3s3p2d-9au      22          36          
 C       3s3p2d-9au      22          36          
 ---------------------------------------------------------
 Initial plane wave basis and FFT box
 ---------------------------------------------------------
--------------------------------- INITVEL DONE ------------------------------------
 -------------------------------------------
 STEP OF MOLECULAR DYNAMICS : 0
 -------------------------------------------
 START CHARGE      : atomic
 DONE(10.1594    SEC) : INIT SCF
 ITER   ETOT(eV)       EDIFF(eV)      DRHO       TIME(s)    
 GE1    -9.379305e+03  0.000000e+00   2.721e-01  9.835e+01  
 GE2    -9.433760e+03  -5.445418e+01  1.544e-01  9.258e+01  
 GE3    -9.447757e+03  -1.399778e+01  2.887e-02  9.232e+01  
 GE4    -9.443141e+03  4.616582e+00   5.465e-02  9.329e+01  
 GE5    -9.451852e+03  -8.711401e+00  7.473e-03  9.261e+01  
 GE6    -9.451997e+03  -1.452733e-01  4.497e-03  9.286e+01  
 GE7    -9.452074e+03  -7.634281e-02  1.397e-03  9.281e+01  
 GE8    -9.452081e+03  -6.721410e-03  4.547e-04  9.276e+01  
 GE9    -9.452081e+03  -2.266959e-04  3.042e-04  9.284e+01  
 GE10   -9.452081e+03  -1.794111e-04  1.369e-04  9.218e+01  
 GE11   -9.452081e+03  -6.430408e-05  4.940e-05  9.286e+01  
 GE12   -9.452081e+03  -7.207703e-06  2.363e-05  9.281e+01  
 GE13   -9.452081e+03  -1.498594e-06  9.288e-06  9.277e+01  
 GE14   -9.452081e+03  -3.031087e-07  4.718e-06  9.232e+01  
 GE15   -9.452081e+03  -6.986381e-08  2.858e-06  9.236e+01  
 GE16   -9.452081e+03  -2.103478e-08  4.123e-07  9.219e+01  
 ><><><><><><><><><><><><><><><><><><><><><><
 TOTAL-STRESS (KBAR):
 ><><><><><><><><><><><><><><><><><><><><><><
 -1.036e+02     -2.132e+01     -9.936e+00     
 -2.132e+01     5.672e+01      -1.485e+01     
 -9.936e+00     -1.485e+01     -3.004e+01     
 TOTAL-PRESSURE: -2.565e+01 KBAR
 ------------------------------------------------------------------------------------------------
 Energy              Potential           Kinetic             Temperature         Pressure (KBAR)     
 -3.474e+02          -3.474e+02          3.373e-03           1.000e+01           -2.552e+01          
 ------------------------------------------------------------------------------------------------
 -------------------------------------------
 STEP OF MOLECULAR DYNAMICS : 1
 -------------------------------------------
 DONE(1.589e+03  SEC) : INIT SCF
 ITER   ETOT(eV)       EDIFF(eV)      DRHO       TIME(s)    
 GE1    -9.452118e+03  0.000000e+00   4.492e-04  9.715e+01  
 GE2    -9.452118e+03  5.415054e-05   2.525e-04  9.231e+01  
 GE3    -9.452118e+03  -1.306796e-04  2.515e-04  9.192e+01  
 GE4    -9.452118e+03  -1.900485e-04  5.865e-05  9.174e+01  
 GE5    -9.452118e+03  -7.977814e-06  3.900e-05  9.238e+01  
 GE6    -9.452118e+03  -6.273658e-06  1.793e-05  9.187e+01  
 GE7    -9.452118e+03  -1.164259e-06  6.193e-06  9.208e+01  
 GE8    -9.452118e+03  -1.134724e-07  1.491e-06  9.219e+01  
 GE9    -9.452118e+03  -3.859238e-09  6.796e-07  9.248e+01  
 ><><><><><><><><><><><><><><><><><><><><><><
 TOTAL-STRESS (KBAR):
 ><><><><><><><><><><><><><><><><><><><><><><
 -1.037e+02     -2.122e+01     -1.001e+01     
 -2.122e+01     5.613e+01      -1.488e+01     
 -1.001e+01     -1.488e+01     -3.000e+01     
 TOTAL-PRESSURE: -2.586e+01 KBAR
 ------------------------------------------------------------------------------------------------
 Energy              Potential           Kinetic             Temperature         Pressure (KBAR)     
 -3.474e+02          -3.474e+02          8.372e-03           2.482e+01           -2.555e+01          
 ------------------------------------------------------------------------------------------------
 -------------------------------------------
 STEP OF MOLECULAR DYNAMICS : 2
 -------------------------------------------
 DONE(2.515e+03  SEC) : INIT SCF
 ITER   ETOT(eV)       EDIFF(eV)      DRHO       TIME(s)    
 GE1    -9.452213e+03  0.000000e+00   1.572e-03  9.657e+01  
 GE2    -9.452212e+03  1.265920e-03   1.051e-03  9.203e+01  
 GE3    -9.452215e+03  -2.970716e-03  9.243e-04  9.180e+01  
 GE4    -9.452217e+03  -2.397000e-03  2.283e-04  9.225e+01  
 GE5    -9.452217e+03  -1.320672e-04  1.541e-04  9.201e+01  
 GE6    -9.452217e+03  -8.805116e-05  6.227e-05  9.185e+01  
 GE7    -9.452217e+03  -1.259462e-05  2.628e-05  9.213e+01  
 GE8    -9.452217e+03  -2.266270e-06  5.426e-06  9.213e+01  
 GE9    -9.452217e+03  -8.222420e-08  2.176e-06  9.169e+01  
 GE10   -9.452217e+03  -7.440054e-09  7.828e-07  9.207e+01  
 ><><><><><><><><><><><><><><><><><><><><><><
 TOTAL-STRESS (KBAR):
 ><><><><><><><><><><><><><><><><><><><><><><
 -1.044e+02     -2.096e+01     -1.037e+01     
 -2.096e+01     5.490e+01      -1.516e+01     
 -1.037e+01     -1.516e+01     -2.997e+01     
 TOTAL-PRESSURE: -2.650e+01 KBAR
 ------------------------------------------------------------------------------------------------
 Energy              Potential           Kinetic             Temperature         Pressure (KBAR)     
 -3.473e+02          -3.474e+02          2.207e-02           6.544e+01           -2.567e+01          
 ------------------------------------------------------------------------------------------------
 -------------------------------------------
 STEP OF MOLECULAR DYNAMICS : 3
 -------------------------------------------
 DONE(3.530e+03  SEC) : INIT SCF
 ITER   ETOT(eV)       EDIFF(eV)      DRHO       TIME(s)    
 GE1    -9.452317e+03  0.000000e+00   1.938e-03  9.778e+01  
 GE2    -9.452315e+03  2.048520e-03   1.286e-03  9.175e+01  
 GE3    -9.452318e+03  -3.650932e-03  1.169e-03  9.224e+01  
 GE4    -9.452323e+03  -4.299814e-03  3.194e-04  9.201e+01  
 GE5    -9.452323e+03  -3.093887e-04  1.881e-04  9.209e+01  
 GE6    -9.452323e+03  -1.293410e-04  6.977e-05  9.194e+01  
 GE7    -9.452323e+03  -1.507553e-05  2.740e-05  9.162e+01  
 GE8    -9.452323e+03  -2.480881e-06  7.251e-06  9.214e+01  
 GE9    -9.452323e+03  -1.641963e-07  2.977e-06  9.168e+01  
 GE10   -9.452323e+03  -2.472233e-08  1.159e-06  9.178e+01  
 GE11   -9.452323e+03  -6.774935e-10  6.732e-07  9.204e+01  
 ><><><><><><><><><><><><><><><><><><><><><><
 TOTAL-STRESS (KBAR):
 ><><><><><><><><><><><><><><><><><><><><><><
 -1.044e+02     -2.062e+01     -1.088e+01     
 -2.062e+01     5.281e+01      -1.484e+01     
 -1.088e+01     -1.484e+01     -3.015e+01     
 TOTAL-PRESSURE: -2.726e+01 KBAR
 ------------------------------------------------------------------------------------------------
 Energy              Potential           Kinetic             Temperature         Pressure (KBAR)     
 -3.473e+02          -3.474e+02          2.728e-02           8.088e+01           -2.625e+01          
 ------------------------------------------------------------------------------------------------
 -------------------------------------------
 STEP OF MOLECULAR DYNAMICS : 4
 -------------------------------------------
 DONE(4.638e+03  SEC) : INIT SCF
 ITER   ETOT(eV)       EDIFF(eV)      DRHO       TIME(s)    
 GE1    -9.452400e+03  0.000000e+00   2.459e-03  9.710e+01  
 GE2    -9.452399e+03  1.302555e-03   1.451e-03  9.193e+01  
 GE3    -9.452404e+03  -5.141387e-03  1.347e-03  9.174e+01  
 GE4    -9.452409e+03  -4.954029e-03  3.057e-04  9.205e+01  
 GE5    -9.452409e+03  -1.905958e-04  2.098e-04  9.239e+01  
 GE6    -9.452410e+03  -1.745744e-04  9.931e-05  9.178e+01  
 GE7    -9.452410e+03  -3.366926e-05  3.429e-05  9.178e+01  
 GE8    -9.452410e+03  -4.142622e-06  8.470e-06  9.185e+01  
 GE9    -9.452410e+03  -2.003478e-07  3.298e-06  9.205e+01  
 GE10   -9.452410e+03  -3.235263e-08  1.258e-06  9.201e+01  
 GE11   -9.452410e+03  -3.265271e-09  5.575e-07  9.232e+01  
 ><><><><><><><><><><><><><><><><><><><><><><
 TOTAL-STRESS (KBAR):
 ><><><><><><><><><><><><><><><><><><><><><><
 -1.057e+02     -2.044e+01     -1.078e+01     
 -2.044e+01     5.276e+01      -1.486e+01     
 -1.078e+01     -1.486e+01     -3.059e+01     
 TOTAL-PRESSURE: -2.786e+01 KBAR
 ------------------------------------------------------------------------------------------------
 Energy              Potential           Kinetic             Temperature         Pressure (KBAR)     
 -3.473e+02          -3.474e+02          4.242e-02           1.258e+02           -2.627e+01          
 ------------------------------------------------------------------------------------------------
 -------------------------------------------
 STEP OF MOLECULAR DYNAMICS : 5
 -------------------------------------------
 DONE(5.746e+03  SEC) : INIT SCF
 ITER   ETOT(eV)       EDIFF(eV)      DRHO       TIME(s)    
 GE1    -9.452514e+03  0.000000e+00   2.703e-03  9.725e+01  
 GE2    -9.452512e+03  2.493847e-03   1.604e-03  9.205e+01  
 GE3    -9.452517e+03  -5.575528e-03  1.533e-03  9.175e+01  
 GE4    -9.452524e+03  -7.261305e-03  3.809e-04  9.149e+01  
 GE5    -9.452525e+03  -3.196327e-04  2.412e-04  9.131e+01  
 GE6    -9.452525e+03  -2.355164e-04  1.181e-04  9.193e+01  
 GE7    -9.452525e+03  -4.598939e-05  3.327e-05  9.219e+01  
 GE8    -9.452525e+03  -3.711948e-06  7.613e-06  9.197e+01  
 GE9    -9.452525e+03  -1.461220e-07  3.507e-06  9.189e+01  
 GE10   -9.452525e+03  -3.817629e-08  1.413e-06  9.152e+01  
 GE11   -9.452525e+03  -4.476407e-09  5.626e-07  9.152e+01  
 ><><><><><><><><><><><><><><><><><><><><><><
 TOTAL-STRESS (KBAR):
 ><><><><><><><><><><><><><><><><><><><><><><
 -1.058e+02     -2.009e+01     -1.102e+01     
 -2.009e+01     5.009e+01      -1.510e+01     
 -1.102e+01     -1.510e+01     -3.016e+01     
 TOTAL-PRESSURE: -2.863e+01 KBAR
 ------------------------------------------------------------------------------------------------
 Energy              Potential           Kinetic             Temperature         Pressure (KBAR)     
 -3.473e+02          -3.474e+02          4.692e-02           1.391e+02           -2.688e+01          
 ------------------------------------------------------------------------------------------------
 -------------------------------------------
 STEP OF MOLECULAR DYNAMICS : 6
 -------------------------------------------
 DONE(6.853e+03  SEC) : INIT SCF
 ITER   ETOT(eV)       EDIFF(eV)      DRHO       TIME(s)    
 GE1    -9.452538e+03  0.000000e+00   2.714e-03  9.714e+01  
 GE2    -9.452539e+03  -1.058804e-03  1.553e-03  9.198e+01  
 GE3    -9.452544e+03  -5.067574e-03  1.252e-03  9.202e+01  
 GE4    -9.452548e+03  -4.048552e-03  3.372e-04  9.215e+01  
 GE5    -9.452548e+03  -2.369058e-04  1.982e-04  9.225e+01  
 GE6    -9.452549e+03  -1.392173e-04  9.415e-05  9.184e+01  
 GE7    -9.452549e+03  -2.775971e-05  3.042e-05  9.229e+01  
 GE8    -9.452549e+03  -4.163907e-06  1.143e-05  9.216e+01  
 GE9    -9.452549e+03  -4.492803e-07  3.659e-06  9.147e+01  
 GE10   -9.452549e+03  -4.027683e-08  1.385e-06  9.153e+01  
 GE11   -9.452549e+03  -3.359625e-09  6.601e-07  9.191e+01  
 ><><><><><><><><><><><><><><><><><><><><><><
 TOTAL-STRESS (KBAR):
 ><><><><><><><><><><><><><><><><><><><><><><
 -1.063e+02     -1.956e+01     -1.081e+01     
 -1.956e+01     4.978e+01      -1.515e+01     
 -1.081e+01     -1.515e+01     -2.995e+01     
 TOTAL-PRESSURE: -2.883e+01 KBAR
 ------------------------------------------------------------------------------------------------
 Energy              Potential           Kinetic             Temperature         Pressure (KBAR)     
 -3.473e+02          -3.474e+02          6.489e-02           1.924e+02           -2.641e+01          
 ------------------------------------------------------------------------------------------------
 -------------------------------------------
 STEP OF MOLECULAR DYNAMICS : 7
 -------------------------------------------
 DONE(7.960e+03  SEC) : INIT SCF
 ITER   ETOT(eV)       EDIFF(eV)      DRHO       TIME(s)    
 GE1    -9.452556e+03  0.000000e+00   3.430e-03  9.729e+01  
 GE2    -9.452549e+03  7.650927e-03   2.078e-03  9.216e+01  
 GE3    -9.452560e+03  -1.151481e-02  2.016e-03  9.245e+01  
 GE4    -9.452573e+03  -1.309175e-02  4.547e-04  9.220e+01  
 GE5    -9.452574e+03  -5.025875e-04  3.159e-04  9.184e+01  
 GE6    -9.452574e+03  -3.691174e-04  1.378e-04  9.208e+01  
 GE7    -9.452574e+03  -6.120920e-05  4.910e-05  9.203e+01  
 GE8    -9.452574e+03  -8.276066e-06  1.137e-05  9.212e+01  
 GE9    -9.452574e+03  -3.874118e-07  4.731e-06  9.161e+01  
 GE10   -9.452574e+03  -6.401076e-08  1.818e-06  9.181e+01  
 GE11   -9.452574e+03  -4.411442e-09  8.895e-07  9.184e+01  
 ><><><><><><><><><><><><><><><><><><><><><><
 TOTAL-STRESS (KBAR):
 ><><><><><><><><><><><><><><><><><><><><><><
 -1.077e+02     -1.842e+01     -1.045e+01     
 -1.842e+01     4.991e+01      -1.609e+01     
 -1.045e+01     -1.609e+01     -2.957e+01     
 TOTAL-PRESSURE: -2.913e+01 KBAR
 ------------------------------------------------------------------------------------------------
 Energy              Potential           Kinetic             Temperature         Pressure (KBAR)     
 -3.473e+02          -3.474e+02          7.979e-02           2.366e+02           -2.616e+01          
 ------------------------------------------------------------------------------------------------
 -------------------------------------------
 STEP OF MOLECULAR DYNAMICS : 8
 -------------------------------------------
 DONE(9.069e+03  SEC) : INIT SCF
 ITER   ETOT(eV)       EDIFF(eV)      DRHO       TIME(s)    
 GE1    -9.452613e+03  0.000000e+00   3.624e-03  9.688e+01  
 GE2    -9.452615e+03  -1.997579e-03  2.061e-03  9.132e+01  
 GE3    -9.452625e+03  -9.823651e-03  1.620e-03  9.205e+01  
 GE4    -9.452632e+03  -7.375201e-03  4.315e-04  9.171e+01  
 GE5    -9.452632e+03  -3.652733e-04  2.470e-04  9.200e+01  
 GE6    -9.452633e+03  -2.008474e-04  1.334e-04  9.123e+01  
 GE7    -9.452633e+03  -5.564211e-05  4.523e-05  9.174e+01  
 GE8    -9.452633e+03  -8.250333e-06  1.497e-05  9.156e+01  
 GE9    -9.452633e+03  -7.744648e-07  4.994e-06  9.180e+01  
 GE10   -9.452633e+03  -7.452892e-08  1.900e-06  9.189e+01  
 GE11   -9.452633e+03  -5.506568e-09  9.439e-07  9.175e+01  
 ><><><><><><><><><><><><><><><><><><><><><><
 TOTAL-STRESS (KBAR):
 ><><><><><><><><><><><><><><><><><><><><><><
 -1.090e+02     -1.781e+01     -9.906e+00     
 -1.781e+01     4.950e+01      -1.664e+01     
 -9.906e+00     -1.664e+01     -2.865e+01     
 TOTAL-PRESSURE: -2.940e+01 KBAR
 ------------------------------------------------------------------------------------------------
 Energy              Potential           Kinetic             Temperature         Pressure (KBAR)     
 -3.473e+02          -3.474e+02          7.594e-02           2.252e+02           -2.656e+01          
 ------------------------------------------------------------------------------------------------
 -------------------------------------------
 STEP OF MOLECULAR DYNAMICS : 9
 -------------------------------------------
 DONE(1.017e+04  SEC) : INIT SCF
 ITER   ETOT(eV)       EDIFF(eV)      DRHO       TIME(s)    
 GE1    -9.452646e+03  0.000000e+00   3.503e-03  9.704e+01  
 GE2    -9.452640e+03  5.888629e-03   2.307e-03  9.196e+01  
 GE3    -9.452655e+03  -1.525535e-02  2.067e-03  9.181e+01  
 GE4    -9.452666e+03  -1.082917e-02  4.095e-04  9.150e+01  
 GE5    -9.452666e+03  -3.201544e-04  2.226e-04  9.175e+01  
 GE6    -9.452666e+03  -1.401771e-04  1.039e-04  9.204e+01  
 GE7    -9.452666e+03  -2.821058e-05  3.446e-05  9.217e+01  
 GE8    -9.452666e+03  -4.605669e-06  1.620e-05  9.149e+01  
 GE9    -9.452666e+03  -1.062918e-06  6.019e-06  9.164e+01  
 GE10   -9.452666e+03  -1.213951e-07  1.790e-06  9.204e+01  
 GE11   -9.452666e+03  -4.564574e-09  9.425e-07  9.241e+01  
 ><><><><><><><><><><><><><><><><><><><><><><
 TOTAL-STRESS (KBAR):
 ><><><><><><><><><><><><><><><><><><><><><><
 -1.097e+02     -1.830e+01     -1.010e+01     
 -1.830e+01     4.847e+01      -1.575e+01     
 -1.010e+01     -1.575e+01     -2.803e+01     
 TOTAL-PRESSURE: -2.977e+01 KBAR
 ------------------------------------------------------------------------------------------------
 Energy              Potential           Kinetic             Temperature         Pressure (KBAR)     
 -3.473e+02          -3.474e+02          7.873e-02           2.334e+02           -2.684e+01          
 ------------------------------------------------------------------------------------------------
 -------------------------------------------
 STEP OF MOLECULAR DYNAMICS : 10
 -------------------------------------------
 DONE(1.128e+04  SEC) : INIT SCF
 ITER   ETOT(eV)       EDIFF(eV)      DRHO       TIME(s)    
 GE1    -9.452648e+03  0.000000e+00   3.518e-03  9.725e+01  
 GE2    -9.452643e+03  4.492550e-03   2.160e-03  9.196e+01  
 GE3    -9.452655e+03  -1.216988e-02  1.948e-03  9.213e+01  
 GE4    -9.452666e+03  -1.074961e-02  4.855e-04  9.237e+01  
 GE5    -9.452667e+03  -5.797770e-04  3.496e-04  9.215e+01  
 GE6    -9.452667e+03  -4.428955e-04  1.355e-04  9.226e+01  
 GE7    -9.452667e+03  -5.873871e-05  5.656e-05  9.178e+01  
 GE8    -9.452667e+03  -1.114562e-05  1.223e-05  9.272e+01  
 GE9    -9.452667e+03  -4.168766e-07  4.139e-06  9.169e+01  
 GE10   -9.452667e+03  -3.734567e-08  1.585e-06  9.210e+01  
 GE11   -9.452667e+03  -7.022421e-09  1.271e-06  9.248e+01  
 GE12   -9.452667e+03  -4.493421e-09  4.020e-07  9.192e+01  
 ><><><><><><><><><><><><><><><><><><><><><><
 TOTAL-STRESS (KBAR):
 ><><><><><><><><><><><><><><><><><><><><><><
 -1.114e+02     -1.841e+01     -9.648e+00     
 -1.841e+01     4.917e+01      -1.621e+01     
 -9.648e+00     -1.621e+01     -2.704e+01     
 TOTAL-PRESSURE: -2.974e+01 KBAR
 ------------------------------------------------------------------------------------------------
 Energy              Potential           Kinetic             Temperature         Pressure (KBAR)     
 -3.473e+02          -3.474e+02          1.029e-01           3.052e+02           -2.590e+01          
 ------------------------------------------------------------------------------------------------

  |CLASS_NAME---------|NAME---------------|TIME(Sec)-----|CALLS----|AVG------|PER%-------
                       total               12482          27        4.6e+02   1e+02     %
   Driver              driver_line         12482          1         1.2e+04   1e+02     %
   PW_Basis            setup_struc_factor  1.2497         11        0.11      0.01      %
   ORB_control         read_orb_first      0.22947        1         0.23      0.0018    %
   LCAO_Orbitals       Read_Orbitals       0.22947        1         0.23      0.0018    %
   NOrbital_Lm         extra_uniform       0.12445        16        0.0078    0.001     %
   Mathzone_Add1       Uni_Deriv_Phi       0.10863        16        0.0068    0.00087   %
   ORB_control         set_orb_tables      6.9372         1         6.9       0.056     %
   ORB_gen_tables      gen_tables          6.9372         1         6.9       0.056     %
   ORB_table_phi       init_Table          5.1118         1         5.1       0.041     %
   ORB_table_phi       cal_ST_Phi12_R      5.0744         558       0.0091    0.041     %
   ORB_table_beta      init_Table_Beta     1.3397         1         1.3       0.011     %
   ORB_table_beta      VNL_PhiBeta_R       1.3299         168       0.0079    0.011     %
   ppcell_vl           init_vloc           0.27086        1         0.27      0.0022    %
   Run_MD              md_line             12474          1         1.2e+04   1e+02     %
   Langevin            setup               1579.1         1         1.6e+03   13        %
   MD_func             force_stress        12474          11        1.1e+03   1e+02     %
   ESolver_KS_LCAO     Run                 11498          11        1e+03     92        %
   ESolver_KS_LCAO     beforescf           28.068         11        2.6       0.22      %
   ESolver_KS_LCAO     beforesolver        9.9165         11        0.9       0.079     %
   ESolver_KS_LCAO     set_matrix_grid     5.7677         11        0.52      0.046     %
   atom_arrange        search              0.10126        11        0.0092    0.00081   %
   Grid_Technique      init                2.9325         11        0.27      0.023     %
   Grid_BigCell        grid_expansion_index0.96503        22        0.044     0.0077    %
   Record_adj          for_2d              2.3783         11        0.22      0.019     %
   Grid_Driver         Find_atom           15.657         672552    2.3e-05   0.13      %
   Charge              atomic_rho          16.003         21        0.76      0.13      %
   PW_Basis            recip2real          3.5886         740       0.0048    0.029     %
   PW_Basis            gathers_scatterp    2.7012         740       0.0037    0.022     %
   Potential           init_pot            0.87125        11        0.079     0.007     %
   Potential           update_from_charge  9.7112         135       0.072     0.078     %
   Potential           cal_v_eff           9.6646         135       0.072     0.077     %
   H_Hartree_pw        v_hartree           0.97008        135       0.0072    0.0078    %
   PW_Basis            real2recip          2.9313         1124      0.0026    0.023     %
   PW_Basis            gatherp_scatters    1.3991         1124      0.0012    0.011     %
   PotXC               cal_v_eff           8.6096         135       0.064     0.069     %
   XC_Functional       v_xc                8.5649         135       0.063     0.069     %
   HSolverLCAO         solve               11449          124       92        92        %
   HamiltLCAO          updateHk            4138.2         4464      0.93      33        %
   OperatorLCAO        init                3458.5         8928      0.39      28        %
   Veff                contributeHk        3456           4464      0.77      28        %
   Gint_interface      cal_gint            5014.9         259       19        40        %
   Gint_interface      cal_gint_vlocal     2396.9         124       19        19        %
   Gint_k              folding_vl_k        1059           4464      0.24      8.5       %
   Gint_k              Distri              813.7          4464      0.18      6.5       %
   Overlap             contributeHR        4.7296         11        0.43      0.038     %
   LCAO_gen_fixedH     calculate_S_no      4.7296         11        0.43      0.038     %
   Ekinetic<OperatorLCAO>contributeHR        4.8031         11        0.44      0.038     %
   Nonlocal<OperatorLCAO>contributeHR        45.342         11        4.1       0.36      %
   LCAO_gen_fixedH     build_Nonlocal_mu_new145.84         22        6.6       1.2       %
   ORB_gen_tables      snap_psibeta_half   3.3555         1195314   2.8e-06   0.027     %
   OperatorLCAO        folding_fixed       624.77         4464      0.14      5         %
   LCAO_nnr            folding_fixedH      617.15         4464      0.14      4.9       %
   HSolverLCAO         hamiltSolvePsiK     1832           4464      0.41      15        %
   DiagoElpa           elpa_solve          1820.8         4464      0.41      15        %
   ElecStateLCAO       psiToRho            5479.2         124       44        44        %
   elecstate           cal_dm              148.29         135       1.1       1.2       %
   psiMulPsiMpi        pdgemm              143.26         4860      0.029     1.1       %
    Local_Orbital_wfc  wfc_2d_to_grid      27.588         4464      0.0062    0.22      %
   LCAO_Charge         cal_dk_k            3033           124       24        24        %
   Record_adj          for_grid            0.65974        124       0.0053    0.0053    %
   Gint_interface      cal_gint_rho        2101.9         124       17        17        %
   Charge              mix_rho             1.4427         113       0.013     0.012     %
   Force_Stress_LCAO   getForceStress      976.02         11        89        7.8       %
   Forces              cal_force_loc       0.94677        11        0.086     0.0076    %
   Forces              cal_force_ew        0.91004        11        0.083     0.0073    %
   Forces              cal_force_scc       8.034          11        0.73      0.064     %
   Stress_Func         stress_loc          6.3674         11        0.58      0.051     %
   Stress_Func         stress_ewa          0.40493        11        0.037     0.0032    %
   Stress_Func         stress_gga          0.41996        11        0.038     0.0034    %
   Force_LCAO_k        ftable_k            958.87         11        87        7.7       %
   Force_LCAO_k        allocate_k          131.42         11        12        1.1       %
   Force_LCAO_k        cal_foverlap_k      25.082         11        2.3       0.2       %
   Force_LCAO_k        cal_edm_2d          24.124         11        2.2       0.19      %
   Local_Orbital_Chargecal_dm_R            12.113         22        0.55      0.097     %
   Force_LCAO_k        cal_ftvnl_dphi_k    0.3174         11        0.029     0.0025    %
   Force_LCAO_k        cal_fvl_dphi_k      516.08         11        47        4.1       %
   Gint_interface      cal_gint_force      516.08         11        47        4.1       %
   Force_LCAO_k        cal_fvnl_dbeta_k_new264.61         11        24        2.1       %
 ----------------------------------------------------------------------------------------

 START  Time  : Mon May 22 14:16:28 2023
 FINISH Time  : Mon May 22 17:44:31 2023
 TOTAL  Time  : 1.2e+04
 SEE INFORMATION IN : OUT.ABACUS/
