WARNING: Total thread number on this node mismatches with hardware availability. This may cause poor performance.
Info: Local MPI proc number: 16,OpenMP thread number: 1,Total thread number: 16,Local thread limit: 32
 *********************************************************
 *                                                       *
 *                  WELCOME TO ABACUS v3.0               *
 *                                                       *
 *            'Atomic-orbital Based Ab-initio            *
 *                  Computation at UStc'                 *
 *                                                       *
 *          Website: http://abacus.ustc.edu.cn/          *
 *                                                       *
 *********************************************************
 Mon May 22 14:16:31 2023
 MAKE THE DIR         : OUT.ABACUS/
 MAKE THE STRU DIR    : OUT.ABACUS/STRU/
 UNIFORM GRID DIM     : 120 * 120 * 128
 UNIFORM GRID DIM(BIG): 60 * 60 * 64
 DONE(0.114349   SEC) : SETUP UNITCELL
 DONE(0.124637   SEC) : INIT K-POINTS
 ---------------------------------------------------------
 Molecular Dynamics simulations
 ---------------------------------------------------------
 ENSEMBLE                 : Langevin
 Time interval(fs)        : 1
 ---------------------------------------------------------
 SPIN    KPOINTS         PROCESSORS  NBASE       
 1       36              16          1584        
 ---------------------------------------------------------
 Use Systematically Improvable Atomic bases
 ---------------------------------------------------------
 ELEMENT ORBITALS        NBASE       NATOM       XC          
 Si      3s3p2d-9au      22          36          
 C       3s3p2d-9au      22          36          
 ---------------------------------------------------------
 Initial plane wave basis and FFT box
 ---------------------------------------------------------
--------------------------------- INITVEL DONE ------------------------------------
 -------------------------------------------
 STEP OF MOLECULAR DYNAMICS : 0
 -------------------------------------------
 START CHARGE      : atomic
 DONE(12.1055    SEC) : INIT SCF
 ITER   ETOT(eV)       EDIFF(eV)      DRHO       TIME(s)    
 GE1    -9.379399e+03  0.000000e+00   2.729e-01  1.152e+02  
 GE2    -9.435052e+03  -5.565279e+01  1.525e-01  1.140e+02  
 GE3    -9.449822e+03  -1.477008e+01  2.705e-02  1.075e+02  
 GE4    -9.447500e+03  2.322480e+00   4.375e-02  1.108e+02  
 GE5    -9.452336e+03  -4.836701e+00  5.250e-03  1.080e+02  
 GE6    -9.452381e+03  -4.411382e-02  2.287e-03  1.085e+02  
 GE7    -9.452398e+03  -1.791812e-02  1.506e-03  1.088e+02  
 GE8    -9.452407e+03  -8.495109e-03  4.257e-04  1.085e+02  
 GE9    -9.452407e+03  -5.691946e-04  1.597e-04  1.083e+02  
 GE10   -9.452408e+03  -6.487145e-05  1.186e-04  1.087e+02  
 GE11   -9.452408e+03  -4.576242e-05  2.577e-05  1.090e+02  
 GE12   -9.452408e+03  -1.018400e-06  1.555e-05  1.079e+02  
 GE13   -9.452408e+03  -8.591561e-07  9.699e-06  1.103e+02  
 GE14   -9.452408e+03  -2.943709e-07  2.118e-06  1.092e+02  
 GE15   -9.452408e+03  -5.273003e-09  1.053e-06  1.114e+02  
 GE16   -9.452408e+03  -1.314770e-09  4.957e-07  1.112e+02  
 ><><><><><><><><><><><><><><><><><><><><><><
 TOTAL-STRESS (KBAR):
 ><><><><><><><><><><><><><><><><><><><><><><
 6.221e+01      6.382e+01      2.715e+01      
 6.382e+01      -6.310e+01     -1.903e+01     
 2.715e+01      -1.903e+01     -5.781e+00     
 TOTAL-PRESSURE: -2.226e+00 KBAR
 ------------------------------------------------------------------------------------------------
 Energy              Potential           Kinetic             Temperature         Pressure (KBAR)     
 -3.474e+02          -3.474e+02          3.373e-03           1.000e+01           -2.099e+00          
 ------------------------------------------------------------------------------------------------
 -------------------------------------------
 STEP OF MOLECULAR DYNAMICS : 1
 -------------------------------------------
 DONE(1.874e+03  SEC) : INIT SCF
 ITER   ETOT(eV)       EDIFF(eV)      DRHO       TIME(s)    
 GE1    -9.452447e+03  0.000000e+00   4.466e-04  1.142e+02  
 GE2    -9.452446e+03  1.020531e-04   2.657e-04  1.108e+02  
 GE3    -9.452447e+03  -1.635906e-04  2.717e-04  1.077e+02  
 GE4    -9.452447e+03  -2.174263e-04  5.936e-05  1.079e+02  
 GE5    -9.452447e+03  -7.892824e-06  4.781e-05  1.080e+02  
 GE6    -9.452447e+03  -8.974079e-06  1.789e-05  1.076e+02  
 GE7    -9.452447e+03  -1.019235e-06  5.883e-06  1.077e+02  
 GE8    -9.452447e+03  -1.048259e-07  1.292e-06  1.077e+02  
 GE9    -9.452447e+03  -2.134569e-09  6.396e-07  1.080e+02  
 ><><><><><><><><><><><><><><><><><><><><><><
 TOTAL-STRESS (KBAR):
 ><><><><><><><><><><><><><><><><><><><><><><
 6.169e+01      6.358e+01      2.701e+01      
 6.358e+01      -6.323e+01     -1.909e+01     
 2.701e+01      -1.909e+01     -5.747e+00     
 TOTAL-PRESSURE: -2.427e+00 KBAR
 ------------------------------------------------------------------------------------------------
 Energy              Potential           Kinetic             Temperature         Pressure (KBAR)     
 -3.474e+02          -3.474e+02          7.579e-03           2.247e+01           -2.140e+00          
 ------------------------------------------------------------------------------------------------
 -------------------------------------------
 STEP OF MOLECULAR DYNAMICS : 2
 -------------------------------------------
 DONE(2.959e+03  SEC) : INIT SCF
 ITER   ETOT(eV)       EDIFF(eV)      DRHO       TIME(s)    
 GE1    -9.452499e+03  0.000000e+00   1.560e-03  1.144e+02  
 GE2    -9.452499e+03  3.550670e-04   9.653e-04  1.029e+02  
 GE3    -9.452501e+03  -2.229851e-03  8.308e-04  9.874e+01  
 GE4    -9.452503e+03  -1.882053e-03  2.199e-04  9.851e+01  
 GE5    -9.452503e+03  -1.411473e-04  1.605e-04  9.856e+01  
 GE6    -9.452503e+03  -9.438169e-05  5.596e-05  9.860e+01  
 GE7    -9.452503e+03  -9.556332e-06  2.368e-05  9.850e+01  
 GE8    -9.452503e+03  -1.891127e-06  5.748e-06  9.854e+01  
 GE9    -9.452503e+03  -1.052915e-07  2.449e-06  9.868e+01  
 GE10   -9.452503e+03  -1.146016e-08  8.831e-07  9.867e+01  
 ><><><><><><><><><><><><><><><><><><><><><><
 TOTAL-STRESS (KBAR):
 ><><><><><><><><><><><><><><><><><><><><><><
 6.097e+01      6.362e+01      2.649e+01      
 6.362e+01      -6.367e+01     -1.928e+01     
 2.649e+01      -1.928e+01     -5.513e+00     
 TOTAL-PRESSURE: -2.736e+00 KBAR
 ------------------------------------------------------------------------------------------------
 Energy              Potential           Kinetic             Temperature         Pressure (KBAR)     
 -3.474e+02          -3.474e+02          1.876e-02           5.563e+01           -2.027e+00          
 ------------------------------------------------------------------------------------------------
 -------------------------------------------
 STEP OF MOLECULAR DYNAMICS : 3
 -------------------------------------------
 DONE(4.061e+03  SEC) : INIT SCF
 ITER   ETOT(eV)       EDIFF(eV)      DRHO       TIME(s)    
 GE1    -9.452491e+03  0.000000e+00   1.834e-03  1.058e+02  
 GE2    -9.452489e+03  2.490080e-03   1.197e-03  9.839e+01  
 GE3    -9.452492e+03  -3.083091e-03  1.173e-03  9.846e+01  
 GE4    -9.452496e+03  -4.629268e-03  3.286e-04  9.842e+01  
 GE5    -9.452497e+03  -3.400638e-04  1.655e-04  9.856e+01  
 GE6    -9.452497e+03  -8.978986e-05  5.642e-05  9.860e+01  
 GE7    -9.452497e+03  -8.873474e-06  2.527e-05  9.879e+01  
 GE8    -9.452497e+03  -2.098814e-06  6.908e-06  9.854e+01  
 GE9    -9.452497e+03  -1.538575e-07  2.354e-06  9.866e+01  
 GE10   -9.452497e+03  -1.178808e-08  8.558e-07  9.852e+01  
 ><><><><><><><><><><><><><><><><><><><><><><
 TOTAL-STRESS (KBAR):
 ><><><><><><><><><><><><><><><><><><><><><><
 6.141e+01      6.406e+01      2.606e+01      
 6.406e+01      -6.393e+01     -1.918e+01     
 2.606e+01      -1.918e+01     -5.487e+00     
 TOTAL-PRESSURE: -2.669e+00 KBAR
 ------------------------------------------------------------------------------------------------
 Energy              Potential           Kinetic             Temperature         Pressure (KBAR)     
 -3.473e+02          -3.474e+02          2.386e-02           7.074e+01           -1.768e+00          
 ------------------------------------------------------------------------------------------------
 -------------------------------------------
 STEP OF MOLECULAR DYNAMICS : 4
 -------------------------------------------
 DONE(5.151e+03  SEC) : INIT SCF
 ITER   ETOT(eV)       EDIFF(eV)      DRHO       TIME(s)    
 GE1    -9.452527e+03  0.000000e+00   2.407e-03  1.045e+02  
 GE2    -9.452525e+03  2.190317e-03   1.448e-03  9.865e+01  
 GE3    -9.452531e+03  -5.358268e-03  1.371e-03  9.867e+01  
 GE4    -9.452536e+03  -5.649311e-03  3.275e-04  9.871e+01  
 GE5    -9.452536e+03  -2.442293e-04  2.139e-04  9.874e+01  
 GE6    -9.452537e+03  -1.735037e-04  9.445e-05  9.863e+01  
 GE7    -9.452537e+03  -3.220787e-05  3.958e-05  9.879e+01  
 GE8    -9.452537e+03  -5.441482e-06  7.970e-06  9.867e+01  
 GE9    -9.452537e+03  -1.721375e-07  3.565e-06  9.869e+01  
 GE10   -9.452537e+03  -3.714149e-08  1.518e-06  9.864e+01  
 GE11   -9.452537e+03  -3.183291e-09  8.020e-07  9.881e+01  
 ><><><><><><><><><><><><><><><><><><><><><><
 TOTAL-STRESS (KBAR):
 ><><><><><><><><><><><><><><><><><><><><><><
 6.070e+01      6.431e+01      2.614e+01      
 6.431e+01      -6.371e+01     -1.900e+01     
 2.614e+01      -1.900e+01     -5.658e+00     
 TOTAL-PRESSURE: -2.889e+00 KBAR
 ------------------------------------------------------------------------------------------------
 Energy              Potential           Kinetic             Temperature         Pressure (KBAR)     
 -3.473e+02          -3.474e+02          3.868e-02           1.147e+02           -1.428e+00          
 ------------------------------------------------------------------------------------------------
 -------------------------------------------
 STEP OF MOLECULAR DYNAMICS : 5
 -------------------------------------------
 DONE(6.340e+03  SEC) : INIT SCF
 ITER   ETOT(eV)       EDIFF(eV)      DRHO       TIME(s)    
 GE1    -9.452513e+03  0.000000e+00   2.617e-03  1.044e+02  
 GE2    -9.452509e+03  4.223066e-03   1.631e-03  9.875e+01  
 GE3    -9.452516e+03  -6.694780e-03  1.587e-03  9.866e+01  
 GE4    -9.452524e+03  -7.741970e-03  3.680e-04  9.870e+01  
 GE5    -9.452524e+03  -3.466408e-04  2.560e-04  9.874e+01  
 GE6    -9.452524e+03  -2.609401e-04  1.010e-04  9.855e+01  
 GE7    -9.452524e+03  -3.251786e-05  3.986e-05  9.852e+01  
 GE8    -9.452524e+03  -5.271001e-06  6.969e-06  9.858e+01  
 GE9    -9.452524e+03  -1.093425e-07  4.771e-06  9.865e+01  
 GE10   -9.452524e+03  -8.773695e-08  1.778e-06  9.862e+01  
 GE11   -9.452524e+03  -8.733169e-09  6.664e-07  9.863e+01  
 ><><><><><><><><><><><><><><><><><><><><><><
 TOTAL-STRESS (KBAR):
 ><><><><><><><><><><><><><><><><><><><><><><
 6.112e+01      6.473e+01      2.596e+01      
 6.473e+01      -6.467e+01     -1.929e+01     
 2.596e+01      -1.929e+01     -4.697e+00     
 TOTAL-PRESSURE: -2.751e+00 KBAR
 ------------------------------------------------------------------------------------------------
 Energy              Potential           Kinetic             Temperature         Pressure (KBAR)     
 -3.473e+02          -3.474e+02          4.416e-02           1.309e+02           -1.083e+00          
 ------------------------------------------------------------------------------------------------
 -------------------------------------------
 STEP OF MOLECULAR DYNAMICS : 6
 -------------------------------------------
 DONE(7.527e+03  SEC) : INIT SCF
 ITER   ETOT(eV)       EDIFF(eV)      DRHO       TIME(s)    
 GE1    -9.452542e+03  0.000000e+00   2.742e-03  1.044e+02  
 GE2    -9.452543e+03  -1.130050e-03  1.554e-03  9.870e+01  
 GE3    -9.452549e+03  -5.181383e-03  1.247e-03  9.886e+01  
 GE4    -9.452553e+03  -4.208239e-03  3.340e-04  9.873e+01  
 GE5    -9.452553e+03  -2.073141e-04  1.849e-04  9.881e+01  
 GE6    -9.452553e+03  -1.193554e-04  1.052e-04  9.881e+01  
 GE7    -9.452553e+03  -3.510181e-05  3.162e-05  9.880e+01  
 GE8    -9.452553e+03  -4.112928e-06  1.073e-05  9.880e+01  
 GE9    -9.452553e+03  -3.575248e-07  3.097e-06  9.881e+01  
 GE10   -9.452553e+03  -2.636192e-08  1.282e-06  9.881e+01  
 GE11   -9.452553e+03  -2.245937e-09  6.839e-07  9.871e+01  
 ><><><><><><><><><><><><><><><><><><><><><><
 TOTAL-STRESS (KBAR):
 ><><><><><><><><><><><><><><><><><><><><><><
 5.994e+01      6.453e+01      2.635e+01      
 6.453e+01      -6.430e+01     -1.932e+01     
 2.635e+01      -1.932e+01     -4.666e+00     
 TOTAL-PRESSURE: -3.008e+00 KBAR
 ------------------------------------------------------------------------------------------------
 Energy              Potential           Kinetic             Temperature         Pressure (KBAR)     
 -3.473e+02          -3.474e+02          6.321e-02           1.874e+02           -6.205e-01          
 ------------------------------------------------------------------------------------------------
 -------------------------------------------
 STEP OF MOLECULAR DYNAMICS : 7
 -------------------------------------------
 DONE(8.717e+03  SEC) : INIT SCF
 ITER   ETOT(eV)       EDIFF(eV)      DRHO       TIME(s)    
 GE1    -9.452499e+03  0.000000e+00   3.322e-03  1.042e+02  
 GE2    -9.452493e+03  5.770518e-03   1.904e-03  9.850e+01  
 GE3    -9.452502e+03  -9.234495e-03  1.889e-03  9.848e+01  
 GE4    -9.452514e+03  -1.174375e-02  4.463e-04  9.843e+01  
 GE5    -9.452514e+03  -4.891987e-04  2.936e-04  9.864e+01  
 GE6    -9.452515e+03  -3.258076e-04  1.383e-04  9.855e+01  
 GE7    -9.452515e+03  -6.338664e-05  4.613e-05  1.063e+02  
 GE8    -9.452515e+03  -7.450080e-06  1.092e-05  1.130e+02  
 GE9    -9.452515e+03  -3.241482e-07  5.301e-06  1.184e+02  
 GE10   -9.452515e+03  -9.427678e-08  2.217e-06  1.186e+02  
 GE11   -9.452515e+03  -2.069294e-08  1.098e-06  1.171e+02  
 GE12   -9.452515e+03  -2.754831e-09  3.930e-07  1.183e+02  
 ><><><><><><><><><><><><><><><><><><><><><><
 TOTAL-STRESS (KBAR):
 ><><><><><><><><><><><><><><><><><><><><><><
 5.928e+01      6.590e+01      2.722e+01      
 6.590e+01      -6.333e+01     -1.927e+01     
 2.722e+01      -1.927e+01     -4.233e+00     
 TOTAL-PRESSURE: -2.764e+00 KBAR
 ------------------------------------------------------------------------------------------------
 Energy              Potential           Kinetic             Temperature         Pressure (KBAR)     
 -3.473e+02          -3.474e+02          7.794e-02           2.311e+02           1.796e-01           
 ------------------------------------------------------------------------------------------------
 -------------------------------------------
 STEP OF MOLECULAR DYNAMICS : 8
 -------------------------------------------
 DONE(1.011e+04  SEC) : INIT SCF
 ITER   ETOT(eV)       EDIFF(eV)      DRHO       TIME(s)    
 GE1    -9.452542e+03  0.000000e+00   3.731e-03  1.042e+02  
 GE2    -9.452542e+03  -5.270102e-04  2.222e-03  9.855e+01  
 GE3    -9.452554e+03  -1.204056e-02  1.788e-03  9.856e+01  
 GE4    -9.452564e+03  -9.023033e-03  4.634e-04  9.863e+01  
 GE5    -9.452564e+03  -4.234741e-04  2.585e-04  9.863e+01  
 GE6    -9.452564e+03  -2.192756e-04  1.347e-04  9.864e+01  
 GE7    -9.452564e+03  -5.900962e-05  4.642e-05  9.866e+01  
 GE8    -9.452564e+03  -8.864124e-06  1.613e-05  9.863e+01  
 GE9    -9.452564e+03  -9.708188e-07  5.741e-06  9.860e+01  
 GE10   -9.452564e+03  -9.430307e-08  1.979e-06  9.853e+01  
 GE11   -9.452564e+03  -1.283525e-08  1.061e-06  9.869e+01  
 GE12   -9.452564e+03  -2.279967e-09  4.517e-07  9.864e+01  
 ><><><><><><><><><><><><><><><><><><><><><><
 TOTAL-STRESS (KBAR):
 ><><><><><><><><><><><><><><><><><><><><><><
 5.706e+01      6.587e+01      2.721e+01      
 6.587e+01      -6.348e+01     -2.025e+01     
 2.721e+01      -2.025e+01     -3.203e+00     
 TOTAL-PRESSURE: -3.207e+00 KBAR
 ------------------------------------------------------------------------------------------------
 Energy              Potential           Kinetic             Temperature         Pressure (KBAR)     
 -3.473e+02          -3.474e+02          7.424e-02           2.201e+02           -4.037e-01          
 ------------------------------------------------------------------------------------------------
 -------------------------------------------
 STEP OF MOLECULAR DYNAMICS : 9
 -------------------------------------------
 DONE(1.139e+04  SEC) : INIT SCF
 ITER   ETOT(eV)       EDIFF(eV)      DRHO       TIME(s)    
 GE1    -9.452525e+03  0.000000e+00   3.549e-03  1.042e+02  
 GE2    -9.452520e+03  5.220013e-03   2.257e-03  9.850e+01  
 GE3    -9.452535e+03  -1.460267e-02  2.067e-03  9.856e+01  
 GE4    -9.452546e+03  -1.091822e-02  4.184e-04  9.835e+01  
 GE5    -9.452546e+03  -3.131496e-04  2.425e-04  9.844e+01  
 GE6    -9.452546e+03  -1.819241e-04  1.252e-04  9.840e+01  
 GE7    -9.452546e+03  -4.834893e-05  5.015e-05  9.846e+01  
 GE8    -9.452546e+03  -1.005402e-05  1.448e-05  9.843e+01  
 GE9    -9.452546e+03  -6.993867e-07  4.733e-06  9.844e+01  
 GE10   -9.452546e+03  -6.269135e-08  1.606e-06  9.839e+01  
 GE11   -9.452546e+03  -2.245937e-09  9.161e-07  9.853e+01  
 ><><><><><><><><><><><><><><><><><><><><><><
 TOTAL-STRESS (KBAR):
 ><><><><><><><><><><><><><><><><><><><><><><
 5.601e+01      6.500e+01      2.642e+01      
 6.500e+01      -6.368e+01     -2.032e+01     
 2.642e+01      -2.032e+01     -2.539e+00     
 TOTAL-PRESSURE: -3.402e+00 KBAR
 ------------------------------------------------------------------------------------------------
 Energy              Potential           Kinetic             Temperature         Pressure (KBAR)     
 -3.473e+02          -3.474e+02          7.825e-02           2.320e+02           -4.464e-01          
 ------------------------------------------------------------------------------------------------
 -------------------------------------------
 STEP OF MOLECULAR DYNAMICS : 10
 -------------------------------------------
 DONE(1.258e+04  SEC) : INIT SCF
 ITER   ETOT(eV)       EDIFF(eV)      DRHO       TIME(s)    
 GE1    -9.452581e+03  0.000000e+00   3.591e-03  1.042e+02  
 GE2    -9.452577e+03  4.026623e-03   2.141e-03  9.846e+01  
 GE3    -9.452588e+03  -1.114660e-02  1.940e-03  9.871e+01  
 GE4    -9.452599e+03  -1.133755e-02  5.239e-04  9.848e+01  
 GE5    -9.452600e+03  -8.060392e-04  3.672e-04  9.854e+01  
 GE6    -9.452601e+03  -4.716353e-04  1.341e-04  9.853e+01  
 GE7    -9.452601e+03  -5.767408e-05  5.862e-05  9.859e+01  
 GE8    -9.452601e+03  -1.154982e-05  9.879e-06  9.854e+01  
 GE9    -9.452601e+03  -2.196749e-07  4.140e-06  9.857e+01  
 GE10   -9.452601e+03  -4.133793e-08  1.937e-06  9.854e+01  
 GE11   -9.452601e+03  -1.393502e-08  1.274e-06  9.856e+01  
 GE12   -9.452601e+03  -4.782671e-09  3.745e-07  9.860e+01  
 ><><><><><><><><><><><><><><><><><><><><><><
 TOTAL-STRESS (KBAR):
 ><><><><><><><><><><><><><><><><><><><><><><
 5.280e+01      6.357e+01      2.673e+01      
 6.357e+01      -6.241e+01     -2.058e+01     
 2.673e+01      -2.058e+01     -1.621e+00     
 TOTAL-PRESSURE: -3.746e+00 KBAR
 ------------------------------------------------------------------------------------------------
 Energy              Potential           Kinetic             Temperature         Pressure (KBAR)     
 -3.473e+02          -3.474e+02          1.072e-01           3.178e+02           3.026e-01           
 ------------------------------------------------------------------------------------------------

  |CLASS_NAME---------|NAME---------------|TIME(Sec)-----|CALLS----|AVG------|PER%-------
                       total               13862          27        5.1e+02   1e+02     %
   Driver              driver_line         13862          1         1.4e+04   1e+02     %
   PW_Basis            setup_struc_factor  1.2328         11        0.11      0.0089    %
   ORB_control         read_orb_first      0.23743        1         0.24      0.0017    %
   LCAO_Orbitals       Read_Orbitals       0.23743        1         0.24      0.0017    %
   NOrbital_Lm         extra_uniform       0.13062        16        0.0082    0.00094   %
   Mathzone_Add1       Uni_Deriv_Phi       0.11514        16        0.0072    0.00083   %
   ORB_control         set_orb_tables      8.5695         1         8.6       0.062     %
   ORB_gen_tables      gen_tables          8.5695         1         8.6       0.062     %
   ORB_table_phi       init_Table          6.4242         1         6.4       0.046     %
   ORB_table_phi       cal_ST_Phi12_R      6.38           558       0.011     0.046     %
   ORB_table_beta      init_Table_Beta     1.6021         1         1.6       0.012     %
   ORB_table_beta      VNL_PhiBeta_R       1.5911         168       0.0095    0.011     %
   ppcell_vl           init_vloc           0.26483        1         0.26      0.0019    %
   Run_MD              md_line             13852          1         1.4e+04   1e+02     %
   Langevin            setup               1861.8         1         1.9e+03   13        %
   MD_func             force_stress        13852          11        1.3e+03   1e+02     %
   ESolver_KS_LCAO     Run                 12794          11        1.2e+03   92        %
   ESolver_KS_LCAO     beforescf           28.957         11        2.6       0.21      %
   ESolver_KS_LCAO     beforesolver        10.156         11        0.92      0.073     %
   ESolver_KS_LCAO     set_matrix_grid     5.9351         11        0.54      0.043     %
   atom_arrange        search              0.1037         11        0.0094    0.00075   %
   Grid_Technique      init                3.0695         11        0.28      0.022     %
   Grid_BigCell        grid_expansion_index0.93844        22        0.043     0.0068    %
   Record_adj          for_2d              2.4246         11        0.22      0.017     %
   Grid_Driver         Find_atom           17.345         677880    2.6e-05   0.13      %
   Charge              atomic_rho          16.251         21        0.77      0.12      %
   PW_Basis            recip2real          4.5112         745       0.0061    0.033     %
   PW_Basis            gathers_scatterp    3.5332         745       0.0047    0.025     %
   Potential           init_pot            0.97093        11        0.088     0.007     %
   Potential           update_from_charge  10.58          136       0.078     0.076     %
   Potential           cal_v_eff           10.529         136       0.077     0.076     %
   H_Hartree_pw        v_hartree           1.0846         136       0.008     0.0078    %
   PW_Basis            real2recip          3.4497         1132      0.003     0.025     %
   PW_Basis            gatherp_scatters    1.7958         1132      0.0016    0.013     %
   PotXC               cal_v_eff           9.3623         136       0.069     0.068     %
   XC_Functional       v_xc                9.3128         136       0.068     0.067     %
   HSolverLCAO         solve               12743          125       1e+02     92        %
   HamiltLCAO          updateHk            4594.6         4500      1         33        %
   OperatorLCAO        init                3890.9         9000      0.43      28        %
   Veff                contributeHk        3888.3         4500      0.86      28        %
   Gint_interface      cal_gint            5132.6         261       20        37        %
   Gint_interface      cal_gint_vlocal     2487.7         125       20        18        %
   Gint_k              folding_vl_k        1400.6         4500      0.31      10        %
   Gint_k              Distri              1140.9         4500      0.25      8.2       %
   Overlap             contributeHR        4.926          11        0.45      0.036     %
   LCAO_gen_fixedH     calculate_S_no      4.926          11        0.45      0.036     %
   Ekinetic<OperatorLCAO>contributeHR        5.0796         11        0.46      0.037     %
   Nonlocal<OperatorLCAO>contributeHR        48.154         11        4.4       0.35      %
   LCAO_gen_fixedH     build_Nonlocal_mu_new154.29         22        7         1.1       %
   ORB_gen_tables      snap_psibeta_half   3.4562         1216770   2.8e-06   0.025     %
   OperatorLCAO        folding_fixed       645.49         4500      0.14      4.7       %
   LCAO_nnr            folding_fixedH      637.69         4500      0.14      4.6       %
   HSolverLCAO         hamiltSolvePsiK     1942.5         4500      0.43      14        %
   DiagoElpa           elpa_solve          1925.8         4500      0.43      14        %
   ElecStateLCAO       psiToRho            6206.1         125       50        45        %
   elecstate           cal_dm              177.07         136       1.3       1.3       %
   psiMulPsiMpi        pdgemm              171.76         4896      0.035     1.2       %
    Local_Orbital_wfc  wfc_2d_to_grid      31.109         4500      0.0069    0.22      %
   LCAO_Charge         cal_dk_k            3213.3         125       26        23        %
   Record_adj          for_grid            0.6786         125       0.0054    0.0049    %
   Gint_interface      cal_gint_rho        2121.5         125       17        15        %
   Charge              mix_rho             1.5464         114       0.014     0.011     %
   Force_Stress_LCAO   getForceStress      1058.4         11        96        7.6       %
   Forces              cal_force_loc       0.94185        11        0.086     0.0068    %
   Forces              cal_force_ew        0.92011        11        0.084     0.0066    %
   Forces              cal_force_scc       8.004          11        0.73      0.058     %
   Stress_Func         stress_loc          6.0371         11        0.55      0.044     %
   Stress_Func         stress_ewa          0.41629        11        0.038     0.003     %
   Stress_Func         stress_gga          0.45569        11        0.041     0.0033    %
   Force_LCAO_k        ftable_k            1041.5         11        95        7.5       %
   Force_LCAO_k        allocate_k          138.69         11        13        1         %
   Force_LCAO_k        cal_foverlap_k      29.901         11        2.7       0.22      %
   Force_LCAO_k        cal_edm_2d          28.923         11        2.6       0.21      %
   Local_Orbital_Chargecal_dm_R            12.311         22        0.56      0.089     %
   Force_LCAO_k        cal_ftvnl_dphi_k    0.31825        11        0.029     0.0023    %
   Force_LCAO_k        cal_fvl_dphi_k      523.4          11        48        3.8       %
   Gint_interface      cal_gint_force      523.4          11        48        3.8       %
   Force_LCAO_k        cal_fvnl_dbeta_k_new277.01         11        25        2         %
 ----------------------------------------------------------------------------------------

 START  Time  : Mon May 22 14:16:31 2023
 FINISH Time  : Mon May 22 18:07:33 2023
 TOTAL  Time  : 1.4e+04
 SEE INFORMATION IN : OUT.ABACUS/
