WARNING: Total thread number on this node mismatches with hardware availability. This may cause poor performance.
Info: Local MPI proc number: 16,OpenMP thread number: 1,Total thread number: 16,Local thread limit: 32
 *********************************************************
 *                                                       *
 *                  WELCOME TO ABACUS v3.0               *
 *                                                       *
 *            'Atomic-orbital Based Ab-initio            *
 *                  Computation at UStc'                 *
 *                                                       *
 *          Website: http://abacus.ustc.edu.cn/          *
 *                                                       *
 *********************************************************
 Mon May 22 14:16:29 2023
 MAKE THE DIR         : OUT.ABACUS/
 MAKE THE STRU DIR    : OUT.ABACUS/STRU/
 UNIFORM GRID DIM     : 120 * 120 * 128
 UNIFORM GRID DIM(BIG): 60 * 60 * 64
 DONE(0.126369   SEC) : SETUP UNITCELL
 DONE(0.135964   SEC) : INIT K-POINTS
 ---------------------------------------------------------
 Molecular Dynamics simulations
 ---------------------------------------------------------
 ENSEMBLE                 : Langevin
 Time interval(fs)        : 1
 ---------------------------------------------------------
 SPIN    KPOINTS         PROCESSORS  NBASE       
 1       36              16          1584        
 ---------------------------------------------------------
 Use Systematically Improvable Atomic bases
 ---------------------------------------------------------
 ELEMENT ORBITALS        NBASE       NATOM       XC          
 Si      3s3p2d-9au      22          36          
 C       3s3p2d-9au      22          36          
 ---------------------------------------------------------
 Initial plane wave basis and FFT box
 ---------------------------------------------------------
--------------------------------- INITVEL DONE ------------------------------------
 -------------------------------------------
 STEP OF MOLECULAR DYNAMICS : 0
 -------------------------------------------
 START CHARGE      : atomic
 DONE(10.4962    SEC) : INIT SCF
 ITER   ETOT(eV)       EDIFF(eV)      DRHO       TIME(s)    
 GE1    -9.373039e+03  0.000000e+00   2.751e-01  1.120e+02  
 GE2    -9.428319e+03  -5.528030e+01  1.528e-01  1.057e+02  
 GE3    -9.441655e+03  -1.333591e+01  3.150e-02  1.054e+02  
 GE4    -9.436909e+03  4.745837e+00   5.817e-02  1.055e+02  
 GE5    -9.447780e+03  -1.087132e+01  9.408e-03  1.054e+02  
 GE6    -9.448046e+03  -2.655288e-01  5.148e-03  1.056e+02  
 GE7    -9.448129e+03  -8.353263e-02  1.619e-03  1.056e+02  
 GE8    -9.448139e+03  -9.291101e-03  8.948e-04  1.057e+02  
 GE9    -9.448139e+03  -1.092941e-04  6.416e-04  1.058e+02  
 GE10   -9.448140e+03  -1.008995e-03  2.481e-04  1.055e+02  
 GE11   -9.448140e+03  -2.078158e-04  9.663e-05  1.057e+02  
 GE12   -9.448140e+03  -3.780747e-05  5.470e-05  1.059e+02  
 GE13   -9.448140e+03  -7.559884e-06  1.841e-05  1.057e+02  
 GE14   -9.448140e+03  -1.206433e-06  9.833e-06  1.058e+02  
 GE15   -9.448140e+03  -3.207344e-07  3.596e-06  1.056e+02  
 GE16   -9.448140e+03  -1.719256e-08  1.816e-06  1.058e+02  
 GE17   -9.448140e+03  -5.549878e-09  6.750e-07  1.060e+02  
 ><><><><><><><><><><><><><><><><><><><><><><
 TOTAL-STRESS (KBAR):
 ><><><><><><><><><><><><><><><><><><><><><><
 1.616e+02      9.818e+00      -7.090e+00     
 9.818e+00      -8.633e+01     1.476e+01      
 -7.090e+00     1.476e+01      6.925e+01      
 TOTAL-PRESSURE: 4.816e+01 KBAR
 ------------------------------------------------------------------------------------------------
 Energy              Potential           Kinetic             Temperature         Pressure (KBAR)     
 -3.472e+02          -3.472e+02          3.373e-03           1.000e+01           4.829e+01           
 ------------------------------------------------------------------------------------------------
 -------------------------------------------
 STEP OF MOLECULAR DYNAMICS : 1
 -------------------------------------------
 DONE(1.917e+03  SEC) : INIT SCF
 ITER   ETOT(eV)       EDIFF(eV)      DRHO       TIME(s)    
 GE1    -9.448249e+03  0.000000e+00   5.357e-04  1.113e+02  
 GE2    -9.448249e+03  4.469623e-04   4.140e-04  1.050e+02  
 GE3    -9.448249e+03  -5.638757e-04  3.925e-04  1.048e+02  
 GE4    -9.448250e+03  -4.785158e-04  8.320e-05  1.049e+02  
 GE5    -9.448250e+03  -1.589862e-05  5.036e-05  1.049e+02  
 GE6    -9.448250e+03  -1.036259e-05  2.492e-05  1.051e+02  
 GE7    -9.448250e+03  -2.117277e-06  7.823e-06  1.050e+02  
 GE8    -9.448250e+03  -1.628830e-07  2.026e-06  1.050e+02  
 GE9    -9.448250e+03  -1.340138e-08  1.211e-06  1.049e+02  
 GE10   -9.448250e+03  -3.166277e-09  4.300e-07  1.052e+02  
 ><><><><><><><><><><><><><><><><><><><><><><
 TOTAL-STRESS (KBAR):
 ><><><><><><><><><><><><><><><><><><><><><><
 1.608e+02      9.027e+00      -7.179e+00     
 9.027e+00      -8.683e+01     1.487e+01      
 -7.179e+00     1.487e+01      6.892e+01      
 TOTAL-PRESSURE: 4.764e+01 KBAR
 ------------------------------------------------------------------------------------------------
 Energy              Potential           Kinetic             Temperature         Pressure (KBAR)     
 -3.472e+02          -3.472e+02          8.408e-03           2.493e+01           4.797e+01           
 ------------------------------------------------------------------------------------------------
 -------------------------------------------
 STEP OF MOLECULAR DYNAMICS : 2
 -------------------------------------------
 DONE(3.075e+03  SEC) : INIT SCF
 ITER   ETOT(eV)       EDIFF(eV)      DRHO       TIME(s)    
 GE1    -9.448384e+03  0.000000e+00   1.577e-03  1.110e+02  
 GE2    -9.448384e+03  -1.011852e-04  9.613e-04  1.047e+02  
 GE3    -9.448386e+03  -2.243349e-03  7.800e-04  1.049e+02  
 GE4    -9.448388e+03  -1.622870e-03  2.000e-04  1.049e+02  
 GE5    -9.448388e+03  -9.646317e-05  1.404e-04  1.047e+02  
 GE6    -9.448388e+03  -7.422109e-05  5.731e-05  1.048e+02  
 GE7    -9.448388e+03  -1.006948e-05  2.107e-05  1.046e+02  
 GE8    -9.448388e+03  -1.715127e-06  6.791e-06  1.045e+02  
 GE9    -9.448388e+03  -1.689836e-07  2.341e-06  1.048e+02  
 GE10   -9.448388e+03  -1.298220e-08  6.709e-07  1.046e+02  
 ><><><><><><><><><><><><><><><><><><><><><><
 TOTAL-STRESS (KBAR):
 ><><><><><><><><><><><><><><><><><><><><><><
 1.598e+02      8.133e+00      -7.430e+00     
 8.133e+00      -8.785e+01     1.499e+01      
 -7.430e+00     1.499e+01      6.897e+01      
 TOTAL-PRESSURE: 4.696e+01 KBAR
 ------------------------------------------------------------------------------------------------
 Energy              Potential           Kinetic             Temperature         Pressure (KBAR)     
 -3.472e+02          -3.472e+02          2.024e-02           6.003e+01           4.774e+01           
 ------------------------------------------------------------------------------------------------
 -------------------------------------------
 STEP OF MOLECULAR DYNAMICS : 3
 -------------------------------------------
 DONE(4.231e+03  SEC) : INIT SCF
 ITER   ETOT(eV)       EDIFF(eV)      DRHO       TIME(s)    
 GE1    -9.448491e+03  0.000000e+00   1.922e-03  1.107e+02  
 GE2    -9.448487e+03  3.575981e-03   1.304e-03  1.049e+02  
 GE3    -9.448492e+03  -4.293117e-03  1.275e-03  1.047e+02  
 GE4    -9.448497e+03  -5.546951e-03  3.250e-04  1.047e+02  
 GE5    -9.448497e+03  -3.255789e-04  1.608e-04  1.052e+02  
 GE6    -9.448498e+03  -8.519898e-05  6.044e-05  1.055e+02  
 GE7    -9.448498e+03  -1.005001e-05  2.357e-05  1.053e+02  
 GE8    -9.448498e+03  -1.931344e-06  7.845e-06  1.054e+02  
 GE9    -9.448498e+03  -2.118760e-07  3.097e-06  1.052e+02  
 GE10   -9.448498e+03  -2.857074e-08  1.046e-06  1.054e+02  
 GE11   -9.448498e+03  3.913376e-10   6.622e-07  1.052e+02  
 ><><><><><><><><><><><><><><><><><><><><><><
 TOTAL-STRESS (KBAR):
 ><><><><><><><><><><><><><><><><><><><><><><
 1.599e+02      7.806e+00      -7.972e+00     
 7.806e+00      -8.836e+01     1.532e+01      
 -7.972e+00     1.532e+01      6.817e+01      
 TOTAL-PRESSURE: 4.656e+01 KBAR
 ------------------------------------------------------------------------------------------------
 Energy              Potential           Kinetic             Temperature         Pressure (KBAR)     
 -3.472e+02          -3.472e+02          2.426e-02           7.192e+01           4.750e+01           
 ------------------------------------------------------------------------------------------------
 -------------------------------------------
 STEP OF MOLECULAR DYNAMICS : 4
 -------------------------------------------
 DONE(5.496e+03  SEC) : INIT SCF
 ITER   ETOT(eV)       EDIFF(eV)      DRHO       TIME(s)    
 GE1    -9.448548e+03  0.000000e+00   2.385e-03  1.112e+02  
 GE2    -9.448545e+03  2.497679e-03   1.435e-03  1.051e+02  
 GE3    -9.448550e+03  -5.250907e-03  1.373e-03  1.051e+02  
 GE4    -9.448556e+03  -6.022384e-03  3.221e-04  1.053e+02  
 GE5    -9.448557e+03  -2.576138e-04  2.071e-04  1.052e+02  
 GE6    -9.448557e+03  -1.563542e-04  8.198e-05  1.053e+02  
 GE7    -9.448557e+03  -2.112979e-05  3.376e-05  1.051e+02  
 GE8    -9.448557e+03  -4.407828e-06  9.228e-06  1.052e+02  
 GE9    -9.448557e+03  -2.858172e-07  3.281e-06  1.052e+02  
 GE10   -9.448557e+03  -3.211752e-08  1.245e-06  1.053e+02  
 GE11   -9.448557e+03  -1.743231e-09  6.242e-07  1.054e+02  
 ><><><><><><><><><><><><><><><><><><><><><><
 TOTAL-STRESS (KBAR):
 ><><><><><><><><><><><><><><><><><><><><><><
 1.589e+02      7.378e+00      -7.455e+00     
 7.378e+00      -8.853e+01     1.569e+01      
 -7.455e+00     1.569e+01      6.774e+01      
 TOTAL-PRESSURE: 4.604e+01 KBAR
 ------------------------------------------------------------------------------------------------
 Energy              Potential           Kinetic             Temperature         Pressure (KBAR)     
 -3.472e+02          -3.472e+02          3.771e-02           1.118e+02           4.750e+01           
 ------------------------------------------------------------------------------------------------
 -------------------------------------------
 STEP OF MOLECULAR DYNAMICS : 5
 -------------------------------------------
 DONE(6.762e+03  SEC) : INIT SCF
 ITER   ETOT(eV)       EDIFF(eV)      DRHO       TIME(s)    
 GE1    -9.448569e+03  0.000000e+00   2.647e-03  1.114e+02  
 GE2    -9.448564e+03  4.397948e-03   1.690e-03  1.056e+02  
 GE3    -9.448572e+03  -7.695871e-03  1.593e-03  1.053e+02  
 GE4    -9.448580e+03  -7.949944e-03  3.657e-04  1.055e+02  
 GE5    -9.448580e+03  -3.185583e-04  2.468e-04  1.053e+02  
 GE6    -9.448580e+03  -2.463138e-04  1.073e-04  1.052e+02  
 GE7    -9.448581e+03  -3.674254e-05  3.561e-05  1.054e+02  
 GE8    -9.448581e+03  -4.484028e-06  7.998e-06  1.054e+02  
 GE9    -9.448581e+03  -1.854569e-07  4.308e-06  1.054e+02  
 GE10   -9.448581e+03  -6.017627e-08  1.700e-06  1.051e+02  
 GE11   -9.448581e+03  -6.635724e-09  7.121e-07  1.054e+02  
 ><><><><><><><><><><><><><><><><><><><><><><
 TOTAL-STRESS (KBAR):
 ><><><><><><><><><><><><><><><><><><><><><><
 1.588e+02      7.146e+00      -7.378e+00     
 7.146e+00      -8.958e+01     1.542e+01      
 -7.378e+00     1.542e+01      6.860e+01      
 TOTAL-PRESSURE: 4.593e+01 KBAR
 ------------------------------------------------------------------------------------------------
 Energy              Potential           Kinetic             Temperature         Pressure (KBAR)     
 -3.472e+02          -3.472e+02          4.550e-02           1.349e+02           4.768e+01           
 ------------------------------------------------------------------------------------------------
 -------------------------------------------
 STEP OF MOLECULAR DYNAMICS : 6
 -------------------------------------------
 DONE(8.029e+03  SEC) : INIT SCF
 ITER   ETOT(eV)       EDIFF(eV)      DRHO       TIME(s)    
 GE1    -9.448734e+03  0.000000e+00   2.841e-03  1.114e+02  
 GE2    -9.448735e+03  -8.492872e-04  1.677e-03  1.054e+02  
 GE3    -9.448742e+03  -6.316109e-03  1.346e-03  1.054e+02  
 GE4    -9.448746e+03  -4.884587e-03  3.664e-04  1.052e+02  
 GE5    -9.448747e+03  -2.745179e-04  2.058e-04  1.053e+02  
 GE6    -9.448747e+03  -1.566977e-04  1.144e-04  1.052e+02  
 GE7    -9.448747e+03  -4.497829e-05  3.436e-05  1.052e+02  
 GE8    -9.448747e+03  -4.776478e-06  1.114e-05  1.054e+02  
 GE9    -9.448747e+03  -4.096484e-07  4.209e-06  1.053e+02  
 GE10   -9.448747e+03  -4.440676e-08  1.278e-06  1.055e+02  
 GE11   -9.448747e+03  9.528219e-10   8.396e-07  1.053e+02  
 ><><><><><><><><><><><><><><><><><><><><><><
 TOTAL-STRESS (KBAR):
 ><><><><><><><><><><><><><><><><><><><><><><
 1.574e+02      6.021e+00      -6.721e+00     
 6.021e+00      -8.999e+01     1.581e+01      
 -6.721e+00     1.581e+01      6.784e+01      
 TOTAL-PRESSURE: 4.508e+01 KBAR
 ------------------------------------------------------------------------------------------------
 Energy              Potential           Kinetic             Temperature         Pressure (KBAR)     
 -3.472e+02          -3.472e+02          6.589e-02           1.954e+02           4.762e+01           
 ------------------------------------------------------------------------------------------------
 -------------------------------------------
 STEP OF MOLECULAR DYNAMICS : 7
 -------------------------------------------
 DONE(9.296e+03  SEC) : INIT SCF
 ITER   ETOT(eV)       EDIFF(eV)      DRHO       TIME(s)    
 GE1    -9.448792e+03  0.000000e+00   3.415e-03  1.113e+02  
 GE2    -9.448784e+03  8.266454e-03   2.044e-03  1.050e+02  
 GE3    -9.448796e+03  -1.137996e-02  2.041e-03  1.053e+02  
 GE4    -9.448810e+03  -1.403179e-02  4.929e-04  1.051e+02  
 GE5    -9.448810e+03  -6.894232e-04  2.969e-04  1.053e+02  
 GE6    -9.448811e+03  -3.183162e-04  1.393e-04  1.053e+02  
 GE7    -9.448811e+03  -6.105486e-05  5.023e-05  1.052e+02  
 GE8    -9.448811e+03  -8.708387e-06  1.199e-05  1.050e+02  
 GE9    -9.448811e+03  -4.551024e-07  5.458e-06  1.052e+02  
 GE10   -9.448811e+03  -8.260161e-08  1.699e-06  1.051e+02  
 GE11   -9.448811e+03  -3.189478e-09  9.927e-07  1.052e+02  
 ><><><><><><><><><><><><><><><><><><><><><><
 TOTAL-STRESS (KBAR):
 ><><><><><><><><><><><><><><><><><><><><><><
 1.560e+02      6.735e+00      -5.702e+00     
 6.735e+00      -8.965e+01     1.618e+01      
 -5.702e+00     1.618e+01      6.710e+01      
 TOTAL-PRESSURE: 4.448e+01 KBAR
 ------------------------------------------------------------------------------------------------
 Energy              Potential           Kinetic             Temperature         Pressure (KBAR)     
 -3.472e+02          -3.472e+02          7.828e-02           2.321e+02           4.750e+01           
 ------------------------------------------------------------------------------------------------
 -------------------------------------------
 STEP OF MOLECULAR DYNAMICS : 8
 -------------------------------------------
 DONE(1.056e+04  SEC) : INIT SCF
 ITER   ETOT(eV)       EDIFF(eV)      DRHO       TIME(s)    
 GE1    -9.448842e+03  0.000000e+00   3.790e-03  1.115e+02  
 GE2    -9.448842e+03  5.920729e-04   2.258e-03  1.051e+02  
 GE3    -9.448854e+03  -1.259728e-02  1.858e-03  1.055e+02  
 GE4    -9.448865e+03  -1.053495e-02  4.928e-04  1.053e+02  
 GE5    -9.448865e+03  -5.119388e-04  3.001e-04  1.055e+02  
 GE6    -9.448866e+03  -3.515533e-04  1.436e-04  1.054e+02  
 GE7    -9.448866e+03  -6.845693e-05  4.855e-05  1.056e+02  
 GE8    -9.448866e+03  -9.000914e-06  1.508e-05  1.055e+02  
 GE9    -9.448866e+03  -8.022002e-07  5.778e-06  1.053e+02  
 GE10   -9.448866e+03  -1.040092e-07  2.391e-06  1.052e+02  
 GE11   -9.448866e+03  -1.176333e-08  9.881e-07  1.053e+02  
 ><><><><><><><><><><><><><><><><><><><><><><
 TOTAL-STRESS (KBAR):
 ><><><><><><><><><><><><><><><><><><><><><><
 1.535e+02      6.137e+00      -5.207e+00     
 6.137e+00      -9.040e+01     1.496e+01      
 -5.207e+00     1.496e+01      6.831e+01      
 TOTAL-PRESSURE: 4.379e+01 KBAR
 ------------------------------------------------------------------------------------------------
 Energy              Potential           Kinetic             Temperature         Pressure (KBAR)     
 -3.472e+02          -3.472e+02          7.490e-02           2.221e+02           4.667e+01           
 ------------------------------------------------------------------------------------------------
 -------------------------------------------
 STEP OF MOLECULAR DYNAMICS : 9
 -------------------------------------------
 DONE(1.183e+04  SEC) : INIT SCF
 ITER   ETOT(eV)       EDIFF(eV)      DRHO       TIME(s)    
 GE1    -9.448940e+03  0.000000e+00   3.644e-03  1.113e+02  
 GE2    -9.448936e+03  3.901876e-03   2.328e-03  1.052e+02  
 GE3    -9.448950e+03  -1.448431e-02  2.027e-03  1.054e+02  
 GE4    -9.448961e+03  -1.107118e-02  4.731e-04  1.056e+02  
 GE5    -9.448962e+03  -4.467539e-04  2.984e-04  1.056e+02  
 GE6    -9.448962e+03  -3.530861e-04  1.551e-04  1.055e+02  
 GE7    -9.448962e+03  -8.406575e-05  5.459e-05  1.056e+02  
 GE8    -9.448962e+03  -1.002652e-05  1.304e-05  1.057e+02  
 GE9    -9.448962e+03  -5.226708e-07  5.972e-06  1.057e+02  
 GE10   -9.448962e+03  -1.010424e-07  2.074e-06  1.055e+02  
 GE11   -9.448962e+03  -1.530238e-08  1.083e-06  1.056e+02  
 GE12   -9.448962e+03  -2.529000e-09  4.296e-07  1.056e+02  
 ><><><><><><><><><><><><><><><><><><><><><><
 TOTAL-STRESS (KBAR):
 ><><><><><><><><><><><><><><><><><><><><><><
 1.526e+02      4.712e+00      -6.065e+00     
 4.712e+00      -9.072e+01     1.496e+01      
 -6.065e+00     1.496e+01      6.841e+01      
 TOTAL-PRESSURE: 4.343e+01 KBAR
 ------------------------------------------------------------------------------------------------
 Energy              Potential           Kinetic             Temperature         Pressure (KBAR)     
 -3.472e+02          -3.472e+02          8.047e-02           2.386e+02           4.653e+01           
 ------------------------------------------------------------------------------------------------
 -------------------------------------------
 STEP OF MOLECULAR DYNAMICS : 10
 -------------------------------------------
 DONE(1.321e+04  SEC) : INIT SCF
 ITER   ETOT(eV)       EDIFF(eV)      DRHO       TIME(s)    
 GE1    -9.449077e+03  0.000000e+00   3.682e-03  1.118e+02  
 GE2    -9.449071e+03  5.662780e-03   2.208e-03  1.053e+02  
 GE3    -9.449084e+03  -1.292086e-02  2.058e-03  1.057e+02  
 GE4    -9.449098e+03  -1.315673e-02  5.209e-04  1.057e+02  
 GE5    -9.449098e+03  -7.858778e-04  3.702e-04  1.065e+02  
 GE6    -9.449099e+03  -5.132341e-04  1.303e-04  1.081e+02  
 GE7    -9.449099e+03  -5.365115e-05  5.319e-05  1.079e+02  
 GE8    -9.449099e+03  -9.576649e-06  1.103e-05  1.074e+02  
 GE9    -9.449099e+03  -3.425905e-07  5.102e-06  1.076e+02  
 GE10   -9.449099e+03  -7.380193e-08  2.015e-06  1.065e+02  
 GE11   -9.449099e+03  -1.509511e-08  1.199e-06  1.051e+02  
 GE12   -9.449099e+03  -3.582363e-09  4.437e-07  1.056e+02  
 ><><><><><><><><><><><><><><><><><><><><><><
 TOTAL-STRESS (KBAR):
 ><><><><><><><><><><><><><><><><><><><><><><
 1.493e+02      2.536e+00      -5.558e+00     
 2.536e+00      -9.033e+01     1.500e+01      
 -5.558e+00     1.500e+01      6.873e+01      
 TOTAL-PRESSURE: 4.256e+01 KBAR
 ------------------------------------------------------------------------------------------------
 Energy              Potential           Kinetic             Temperature         Pressure (KBAR)     
 -3.471e+02          -3.472e+02          1.082e-01           3.210e+02           4.673e+01           
 ------------------------------------------------------------------------------------------------

  |CLASS_NAME---------|NAME---------------|TIME(Sec)-----|CALLS----|AVG------|PER%-------
                       total               14591          27        5.4e+02   1e+02     %
   Driver              driver_line         14591          1         1.5e+04   1e+02     %
   PW_Basis            setup_struc_factor  1.2293         11        0.11      0.0084    %
   ORB_control         read_orb_first      0.24113        1         0.24      0.0017    %
   LCAO_Orbitals       Read_Orbitals       0.24111        1         0.24      0.0017    %
   NOrbital_Lm         extra_uniform       0.13211        16        0.0083    0.00091   %
   Mathzone_Add1       Uni_Deriv_Phi       0.11717        16        0.0073    0.0008    %
   ORB_control         set_orb_tables      7.1447         1         7.1       0.049     %
   ORB_gen_tables      gen_tables          7.1447         1         7.1       0.049     %
   ORB_table_phi       init_Table          5.2749         1         5.3       0.036     %
   ORB_table_phi       cal_ST_Phi12_R      5.2292         558       0.0094    0.036     %
   ORB_table_beta      init_Table_Beta     1.3634         1         1.4       0.0093    %
   ORB_table_beta      VNL_PhiBeta_R       1.3548         168       0.0081    0.0093    %
   ppcell_vl           init_vloc           0.25979        1         0.26      0.0018    %
   Run_MD              md_line             14583          1         1.5e+04   1e+02     %
   Langevin            setup               1906.1         1         1.9e+03   13        %
   MD_func             force_stress        14583          11        1.3e+03   1e+02     %
   ESolver_KS_LCAO     Run                 13478          11        1.2e+03   92        %
   ESolver_KS_LCAO     beforescf           26.94          11        2.4       0.18      %
   ESolver_KS_LCAO     beforesolver        10.506         11        0.96      0.072     %
   ESolver_KS_LCAO     set_matrix_grid     6.2123         11        0.56      0.043     %
   atom_arrange        search              0.10331        11        0.0094    0.00071   %
   Grid_Technique      init                3.3            11        0.3       0.023     %
   Grid_BigCell        grid_expansion_index0.91103        22        0.041     0.0062    %
   Record_adj          for_2d              2.5163         11        0.23      0.017     %
   Grid_Driver         Find_atom           18.635         688536    2.7e-05   0.13      %
   Charge              atomic_rho          14.003         21        0.67      0.096     %
   PW_Basis            recip2real          2.5424         755       0.0034    0.017     %
   PW_Basis            gathers_scatterp    1.2631         755       0.0017    0.0087    %
   Potential           init_pot            0.96165        11        0.087     0.0066    %
   Potential           update_from_charge  10.971         138       0.079     0.075     %
   Potential           cal_v_eff           10.917         138       0.079     0.075     %
   H_Hartree_pw        v_hartree           1.1808         138       0.0086    0.0081    %
   PW_Basis            real2recip          3.4434         1148      0.003     0.024     %
   PW_Basis            gatherp_scatters    1.4688         1148      0.0013    0.01      %
   PotXC               cal_v_eff           9.6475         138       0.07      0.066     %
   XC_Functional       v_xc                9.5957         138       0.07      0.066     %
   HSolverLCAO         solve               13430          127       1.1e+02   92        %
   HamiltLCAO          updateHk            4922.6         4572      1.1       34        %
   OperatorLCAO        init                4185.7         9144      0.46      29        %
   Veff                contributeHk        4182.7         4572      0.91      29        %
   Gint_interface      cal_gint            6660.6         265       25        46        %
   Gint_interface      cal_gint_vlocal     3237.5         127       25        22        %
   Gint_k              folding_vl_k        945.21         4572      0.21      6.5       %
   Gint_k              Distri              676            4572      0.15      4.6       %
   Overlap             contributeHR        5.2317         11        0.48      0.036     %
   LCAO_gen_fixedH     calculate_S_no      5.2317         11        0.48      0.036     %
   Ekinetic<OperatorLCAO>contributeHR        5.3416         11        0.49      0.037     %
   Nonlocal<OperatorLCAO>contributeHR        52.296         11        4.8       0.36      %
   LCAO_gen_fixedH     build_Nonlocal_mu_new162.56         22        7.4       1.1       %
   ORB_gen_tables      snap_psibeta_half   3.576          1231215   2.9e-06   0.025     %
   OperatorLCAO        folding_fixed       673.95         4572      0.15      4.6       %
   LCAO_nnr            folding_fixedH      665.59         4572      0.15      4.6       %
   HSolverLCAO         hamiltSolvePsiK     1979.4         4572      0.43      14        %
   DiagoElpa           elpa_solve          1965           4572      0.43      13        %
   ElecStateLCAO       psiToRho            6528.1         127       51        45        %
   elecstate           cal_dm              163.07         138       1.2       1.1       %
   psiMulPsiMpi        pdgemm              157.31         4968      0.032     1.1       %
    Local_Orbital_wfc  wfc_2d_to_grid      31.397         4572      0.0069    0.22      %
   LCAO_Charge         cal_dk_k            3525.1         127       28        24        %
   Record_adj          for_grid            0.70184        127       0.0055    0.0048    %
   Gint_interface      cal_gint_rho        2829.8         127       22        19        %
   Charge              mix_rho             1.6147         116       0.014     0.011     %
   Force_Stress_LCAO   getForceStress      1104.1         11        1e+02     7.6       %
   Forces              cal_force_loc       0.93094        11        0.085     0.0064    %
   Forces              cal_force_ew        0.90406        11        0.082     0.0062    %
   Forces              cal_force_scc       7.8503         11        0.71      0.054     %
   Stress_Func         stress_loc          6.6672         11        0.61      0.046     %
   Stress_Func         stress_ewa          0.40996        11        0.037     0.0028    %
   Stress_Func         stress_gga          0.47243        11        0.043     0.0032    %
   Force_LCAO_k        ftable_k            1086.8         11        99        7.4       %
   Force_LCAO_k        allocate_k          143.87         11        13        0.99      %
   Force_LCAO_k        cal_foverlap_k      28.898         11        2.6       0.2       %
   Force_LCAO_k        cal_edm_2d          27.858         11        2.5       0.19      %
   Local_Orbital_Chargecal_dm_R            12.573         22        0.57      0.086     %
   Force_LCAO_k        cal_ftvnl_dphi_k    0.31662        11        0.029     0.0022    %
   Force_LCAO_k        cal_fvl_dphi_k      593.26         11        54        4.1       %
   Gint_interface      cal_gint_force      593.26         11        54        4.1       %
   Force_LCAO_k        cal_fvnl_dbeta_k_new292.33         11        27        2         %
 ----------------------------------------------------------------------------------------

 START  Time  : Mon May 22 14:16:29 2023
 FINISH Time  : Mon May 22 18:19:41 2023
 TOTAL  Time  : 1.5e+04
 SEE INFORMATION IN : OUT.ABACUS/
