                                                                                     
                             WELCOME TO ABACUS v3.0                                  
                                                                                     
               'Atomic-orbital Based Ab-initio Computation at UStc'                  
                                                                                     
                     Website: http://abacus.ustc.edu.cn/                             
                                                                                     
    Version: Parallel, in development
    Processor Number is 16
    Start Time is Mon May 22 14:16:24 2023
                                                                                     
 ------------------------------------------------------------------------------------

 READING GENERAL INFORMATION
                           global_out_dir = OUT.ABACUS/
                           global_in_card = INPUT
                               pseudo_dir = 
                              orbital_dir = 
                                    DRANK = 1
                                    DSIZE = 16
                                   DCOLOR = 1
                                    GRANK = 1
                                    GSIZE = 1
 The esolver type has been set to : ksdft_lcao




 >>>>>>>>>>>>>>>>>>>>>>>>>>>>>>>>>>>>>>>>>>>>>>>>>>>>>>>>>>>>>>>>>>>>>>
 |                                                                    |
 | Reading atom information in unitcell:                              |
 | From the input file and the structure file we know the number of   |
 | different elments in this unitcell, then we list the detail        |
 | information for each element, especially the zeta and polar atomic |
 | orbital number for each element. The total atom number is counted. |
 | We calculate the nearest atom distance for each atom and show the  |
 | Cartesian and Direct coordinates for each atom. We list the file   |
 | address for atomic orbitals. The volume and the lattice vectors    |
 | in real and reciprocal space is also shown.                        |
 |                                                                    |
 <<<<<<<<<<<<<<<<<<<<<<<<<<<<<<<<<<<<<<<<<<<<<<<<<<<<<<<<<<<<<<<<<<<<<<




 READING UNITCELL INFORMATION
                                    ntype = 2
                 atom label for species 1 = Si
                 atom label for species 2 = C
                  lattice constant (Bohr) = 1.88973
              lattice constant (Angstrom) = 1

 READING ATOM TYPE 1
                               atom label = Si
                      L=0, number of zeta = 3
                      L=1, number of zeta = 3
                      L=2, number of zeta = 2
             number of atom for this type = 36
                      start magnetization = FALSE
                      start magnetization = FALSE
                      start magnetization = FALSE
                      start magnetization = FALSE
                      start magnetization = FALSE
                      start magnetization = FALSE
                      start magnetization = FALSE
                      start magnetization = FALSE
                      start magnetization = FALSE
                      start magnetization = FALSE
                      start magnetization = FALSE
                      start magnetization = FALSE
                      start magnetization = FALSE
                      start magnetization = FALSE
                      start magnetization = FALSE
                      start magnetization = FALSE
                      start magnetization = FALSE
                      start magnetization = FALSE
                      start magnetization = FALSE
                      start magnetization = FALSE
                      start magnetization = FALSE
                      start magnetization = FALSE
                      start magnetization = FALSE
                      start magnetization = FALSE
                      start magnetization = FALSE
                      start magnetization = FALSE
                      start magnetization = FALSE
                      start magnetization = FALSE
                      start magnetization = FALSE
                      start magnetization = FALSE
                      start magnetization = FALSE
                      start magnetization = FALSE
                      start magnetization = FALSE
                      start magnetization = FALSE
                      start magnetization = FALSE
                      start magnetization = FALSE

 READING ATOM TYPE 2
                               atom label = C
                      L=0, number of zeta = 3
                      L=1, number of zeta = 3
                      L=2, number of zeta = 2
             number of atom for this type = 36
                      start magnetization = FALSE
                      start magnetization = FALSE
                      start magnetization = FALSE
                      start magnetization = FALSE
                      start magnetization = FALSE
                      start magnetization = FALSE
                      start magnetization = FALSE
                      start magnetization = FALSE
                      start magnetization = FALSE
                      start magnetization = FALSE
                      start magnetization = FALSE
                      start magnetization = FALSE
                      start magnetization = FALSE
                      start magnetization = FALSE
                      start magnetization = FALSE
                      start magnetization = FALSE
                      start magnetization = FALSE
                      start magnetization = FALSE
                      start magnetization = FALSE
                      start magnetization = FALSE
                      start magnetization = FALSE
                      start magnetization = FALSE
                      start magnetization = FALSE
                      start magnetization = FALSE
                      start magnetization = FALSE
                      start magnetization = FALSE
                      start magnetization = FALSE
                      start magnetization = FALSE
                      start magnetization = FALSE
                      start magnetization = FALSE
                      start magnetization = FALSE
                      start magnetization = FALSE
                      start magnetization = FALSE
                      start magnetization = FALSE
                      start magnetization = FALSE
                      start magnetization = FALSE

                        TOTAL ATOM NUMBER = 72

 CARTESIAN COORDINATES ( UNIT = 1.88973 Bohr ).
         atom                   x                   y                   z                 mag                  vx                  vy                  vz
     tauc_Si1     0.0459576142097       1.80517814621       2.56840850798                   0                   0                   0                   0
     tauc_Si2       3.23895252655       7.18211509699       2.54783950621                   0                   0                   0                   0
     tauc_Si3      -3.02310060578       7.25114420099       2.61610383431                   0                   0                   0                   0
     tauc_Si4       4.81615611172       6.26206602232       5.10211628737                   0                   0                   0                   0
     tauc_Si5       1.63693836019      0.871056438612        5.1201610313                   0                   0                   0                   0
     tauc_Si6       7.90588119467      0.810694670516        5.0631553224                   0                   0                   0                   0
     tauc_Si7      0.104907776912       1.79686304674       7.71045584506                   0                   0                   0                   0
     tauc_Si8       3.29595912267       7.16822383955       7.70039910331                   0                   0                   0                   0
     tauc_Si9       -2.9567806084       7.24203851644       7.76425151412                   0                   0                   0                   0
    tauc_Si10       4.87630645228       6.24425703126       10.2513074896                   0                   0                   0                   0
    tauc_Si11       1.68841569886      0.851970247459       10.2622740221                   0                   0                   0                   0
    tauc_Si12        7.9545753174      0.785104038199       10.1843991663                   0                   0                   0                   0
    tauc_Si13      -1.47995087276       4.53157023997       2.60377485014                   0                   0                   0                   0
    tauc_Si14       1.65368396045        4.5035887068        2.5593963123                   0                   0                   0                   0
    tauc_Si15      0.102754136241       7.22016554397       2.58635963343                   0                   0                   0                   0
    tauc_Si16       6.35561814607       3.53441547957       5.07204873801                   0                   0                   0                   0
    tauc_Si17       3.21028507983       3.56292179375       5.12261650799                   0                   0                   0                   0
    tauc_Si18        4.7531388023      0.834657718271       5.08312669134                   0                   0                   0                   0
    tauc_Si19       -1.4358017818       4.50133496992       7.72277201346                   0                   0                   0                   0
    tauc_Si20       1.68819037819       4.48353203276       7.70304044182                   0                   0                   0                   0
    tauc_Si21      0.167035439113          7.20500653       7.72419446302                   0                   0                   0                   0
    tauc_Si22       6.41768759753       3.52420685164       10.2087110254                   0                   0                   0                   0
    tauc_Si23       3.28507914431       3.54506003801        10.255831104                   0                   0                   0                   0
    tauc_Si24       4.82026447982      0.825035582311        10.225607161                   0                   0                   0                   0
    tauc_Si25       3.16352218895       1.76668750515       2.53357903339                   0                   0                   0                   0
    tauc_Si26       6.31021045978       1.73224727802       2.50634179471                   0                   0                   0                   0
    tauc_Si27        4.7782366209       4.46750947285       2.51893199695                   0                   0                   0                   0
    tauc_Si28       1.68849801733       6.28484340287       5.13032737317                   0                   0                   0                   0
    tauc_Si29      -1.42858596859       6.32357047615       5.18097985821                   0                   0                   0                   0
    tauc_Si30     0.0960265491036       3.60396965867       5.13608526546                   0                   0                   0                   0
    tauc_Si31       3.24329974342       1.75361966299        7.6779724142                   0                   0                   0                   0
    tauc_Si32       6.37864592418       1.73265828441       7.65247774092                   0                   0                   0                   0
    tauc_Si33       4.83718220274       4.44758964201       7.67856360483                   0                   0                   0                   0
    tauc_Si34       1.74600536409       6.25474314507       10.2912040521                   0                   0                   0                   0
    tauc_Si35      -1.38675315929        6.3021481698       10.3052810379                   0                   0                   0                   0
    tauc_Si36      0.138185746829        3.5648558657        10.283756118                   0                   0                   0                   0
      tauc_C1      0.069206133672        1.7974132817       4.49881550056                   0                   0                   0                   0
      tauc_C2        3.2595990615       7.17973744813       4.48534478878                   0                   0                   0                   0
      tauc_C3      -3.00510833657       7.24057672179       4.55969885186                   0                   0                   0                   0
      tauc_C4       4.84544262359       6.24987728579       7.03560558414                   0                   0                   0                   0
      tauc_C5       1.65134359836      0.861352900679       7.05503482868                   0                   0                   0                   0
      tauc_C6       7.91493039196       0.80027260258       6.97756380136                   0                   0                   0                   0
      tauc_C7      0.117360073679       1.78657661194       9.62828221065                   0                   0                   0                   0
      tauc_C8        3.3262622015       7.17438304045        9.6130573376                   0                   0                   0                   0
      tauc_C9      -2.95058807287       7.23055572193        9.7030859499                   0                   0                   0                   0
     tauc_C10       4.78661344005       6.27788710632       1.89466675753                   0                   0                   0                   0
     tauc_C11       1.59872784536      0.882105573961       1.92275864489                   0                   0                   0                   0
     tauc_C12       7.86308525064       0.82299874879       1.84024212847                   0                   0                   0                   0
     tauc_C13       -1.4681800485       4.52347065992       4.53170930099                   0                   0                   0                   0
     tauc_C14       1.66641911682       4.47412463054       4.48994742235                   0                   0                   0                   0
     tauc_C15      0.136512201135       7.21022915272       4.51966654136                   0                   0                   0                   0
     tauc_C16        6.3789447248       3.52900829892       7.00892579461                   0                   0                   0                   0
     tauc_C17       3.24661248169       3.55424772238       7.03734095041                   0                   0                   0                   0
     tauc_C18       4.77612866349      0.844030733141       7.02460392753                   0                   0                   0                   0
     tauc_C19      -1.40999430417       4.50254027633       9.65440054673                   0                   0                   0                   0
     tauc_C20       1.71893539349       4.47929696179       9.63001695583                   0                   0                   0                   0
     tauc_C21      0.182504217439       7.18941906737       9.66312045029                   0                   0                   0                   0
     tauc_C22       6.32375507994       3.54496692793       1.86664710556                   0                   0                   0                   0
     tauc_C23       3.18914842646       3.58363171149       1.90359181246                   0                   0                   0                   0
     tauc_C24        4.7284373827      0.848556558871       1.89376050308                   0                   0                   0                   0
     tauc_C25       3.20514630205       1.75576630692       4.47780811019                   0                   0                   0                   0
     tauc_C26       6.32511296159       1.72120338959       4.43270055049                   0                   0                   0                   0
     tauc_C27       4.79383457036       4.45534215872       4.46051599057                   0                   0                   0                   0
     tauc_C28       1.70125946077        6.2838424613        7.0476008951                   0                   0                   0                   0
     tauc_C29      -1.42717874971       6.32463929843       7.10664444265                   0                   0                   0                   0
     tauc_C30      0.116774245752       3.58504037069       7.08176395173                   0                   0                   0                   0
     tauc_C31       3.25125315411       1.74156125253       9.60869918403                   0                   0                   0                   0
     tauc_C32       6.39552790645       1.70576214558       9.56827570268                   0                   0                   0                   0
     tauc_C33       4.84795750735        4.4390071471       9.59931393347                   0                   0                   0                   0
     tauc_C34       1.66697841227       6.31578706807       1.94473692547                   0                   0                   0                   0
     tauc_C35      -1.46752817872       6.33853919161       1.95938568165                   0                   0                   0                   0
     tauc_C36      0.068298565145       3.61720707426       1.93560406893                   0                   0                   0                   0


 READING ORBITAL FILE NAMES FOR LCAO
 orbital file: Si_gga_9au_100Ry_3s3p2d.orb
 orbital file: C_gga_9au_100Ry_3s3p2d.orb

                          Volume (Bohr^3) = 5223.58673957
                             Volume (A^3) = 774.054768356

 Lattice vectors: (Cartesian coordinate: in unit of a_0)
        +9.3935443103                  +0                  +0
       -4.53183419529      +7.94673229587                  +0
       +0.23696769227    -0.0645438716626      +10.3694121754
 Reciprocal vectors: (Cartesian coordinate: in unit of 2 pi/a_0)
      +0.106456090158     +0.060709400004   -0.00205491246079
                   -0     +0.125837886916  +0.000783271441625
                   +0                  -0    +0.0964374819987




 >>>>>>>>>>>>>>>>>>>>>>>>>>>>>>>>>>>>>>>>>>>>>>>>>>>>>>>>>>>>>>>>>>>>>>
 |                                                                    |
 | Reading pseudopotentials files:                                    |
 | The pseudopotential file is in UPF format. The 'NC' indicates that |
 | the type of pseudopotential is 'norm conserving'. Functional of    |
 | exchange and correlation is decided by 4 given parameters in UPF   |
 | file.  We also read in the 'core correction' if there exists.      |
 | Also we can read the valence electrons number and the maximal      |
 | angular momentum used in this pseudopotential. We also read in the |
 | trail wave function, trail atomic density and local-pseudopotential|
 | on logrithmic grid. The non-local pseudopotential projector is also|
 | read in if there is any.                                           |
 |                                                                    |
 <<<<<<<<<<<<<<<<<<<<<<<<<<<<<<<<<<<<<<<<<<<<<<<<<<<<<<<<<<<<<<<<<<<<<<




                PAO radial cut off (Bohr) = 15

 Read in pseudopotential file is Si_ONCV_PBE-1.0.upf
                     pseudopotential type = NC
          exchange-correlation functional = PBE
                 nonlocal core correction = 0
                        valence electrons = 4
                                     lmax = 1
                           number of zeta = 0
                     number of projectors = 4
                           L of projector = 0
                           L of projector = 0
                           L of projector = 1
                           L of projector = 1
                PAO radial cut off (Bohr) = 15

 Read in pseudopotential file is C_ONCV_PBE-1.0.upf
                     pseudopotential type = NC
          exchange-correlation functional = PBE
                 nonlocal core correction = 0
                        valence electrons = 4
                                     lmax = 1
                           number of zeta = 0
                     number of projectors = 4
                           L of projector = 0
                           L of projector = 0
                           L of projector = 1
                           L of projector = 1
     initial pseudo atomic orbital number = 0
                                   NLOCAL = 1584




 >>>>>>>>>>>>>>>>>>>>>>>>>>>>>>>>>>>>>>>>>>>>>>>>>>>>>>>>>>>>>>>>>>>>>>
 |                                                                    |
 | Setup plane waves of charge/potential:                             |
 | Use the energy cutoff and the lattice vectors to generate the      |
 | dimensions of FFT grid. The number of FFT grid on each processor   |
 | is 'nrxx'. The number of plane wave basis in reciprocal space is   |
 | different for charege/potential and wave functions. We also set    |
 | the 'sticks' for the parallel of FFT. The number of plane waves    |
 | is 'npw' in each processor.                                        |
 <<<<<<<<<<<<<<<<<<<<<<<<<<<<<<<<<<<<<<<<<<<<<<<<<<<<<<<<<<<<<<<<<<<<<<





 SETUP THE PLANE WAVE BASIS
 energy cutoff for charge/potential (unit:Ry) = 400
          [fft grid for charge/potential] = 120, 120, 128
                      [fft grid division] = 2, 2, 2
      [big fft grid for charge/potential] = 60, 60, 64
                                     nbxx = 14400
                                     nrxx = 115200

 SETUP PLANE WAVES FOR CHARGE/POTENTIAL
                    number of plane waves = 705663
                         number of sticks = 8491

 PARALLEL PW FOR CHARGE/POTENTIAL
     PROC   COLUMNS(POT)             PW
        1            531          44105
        2            531          44104
        3            531          44104
        4            530          44103
        5            530          44103
        6            530          44103
        7            530          44103
        8            530          44103
        9            531          44105
       10            531          44105
       11            531          44104
       12            531          44104
       13            531          44104
       14            531          44104
       15            531          44104
       16            531          44105
 --------------- sum -------------------
       16           8491         705663
                            number of |g| = 43110
                                  max |g| = 36.1823940369
                                  min |g| = 0.045375067248

 SETUP THE ELECTRONS NUMBER
            electron number of element Si = 4
      total electron number of element Si = 144
             electron number of element C = 4
       total electron number of element C = 144
            AUTOSET number of electrons:  = 288
 DONE : SETUP UNITCELL Time : 0.0809778942478 (SEC)





 >>>>>>>>>>>>>>>>>>>>>>>>>>>>>>>>>>>>>>>>>>>>>>>>>>>>>>>>>>>>>>>>>>>>>>
 |                                                                    |
 | Setup K-points                                                     |
 | We setup the k-points according to input parameters.               |
 | The reduced k-points are set according to symmetry operations.     |
 | We treat the spin as another set of k-points.                      |
 |                                                                    |
 <<<<<<<<<<<<<<<<<<<<<<<<<<<<<<<<<<<<<<<<<<<<<<<<<<<<<<<<<<<<<<<<<<<<<<





 SETUP K-POINTS
                                    nspin = 1
                   Input type of k points = Monkhorst-Pack(Gamma)
                                   nkstot = 64
                               nkstot_ibz = 36
      IBZ             DirectX             DirectY             DirectZ              Weight    ibz2bz
        1                   0                   0                   0            0.015625         0
        2                0.75                   0                   0             0.03125         1
        3                 0.5                   0                   0            0.015625         2
        4                   0                0.75                   0             0.03125         4
        5                0.75                0.75                   0             0.03125         5
        6                 0.5                0.75                   0             0.03125         6
        7                0.25                0.75                   0             0.03125         7
        8                   0                 0.5                   0            0.015625         8
        9                0.75                 0.5                   0             0.03125         9
       10                 0.5                 0.5                   0            0.015625        10
       11                   0                   0                0.75             0.03125        16
       12                0.75                   0                0.75             0.03125        17
       13                 0.5                   0                0.75             0.03125        18
       14                0.25                   0                0.75             0.03125        19
       15                   0                0.75                0.75             0.03125        20
       16                0.75                0.75                0.75             0.03125        21
       17                 0.5                0.75                0.75             0.03125        22
       18                0.25                0.75                0.75             0.03125        23
       19                   0                 0.5                0.75             0.03125        24
       20                0.75                 0.5                0.75             0.03125        25
       21                 0.5                 0.5                0.75             0.03125        26
       22                0.25                 0.5                0.75             0.03125        27
       23                   0                0.25                0.75             0.03125        28
       24                0.75                0.25                0.75             0.03125        29
       25                 0.5                0.25                0.75             0.03125        30
       26                0.25                0.25                0.75             0.03125        31
       27                   0                   0                 0.5            0.015625        32
       28                0.75                   0                 0.5             0.03125        33
       29                 0.5                   0                 0.5            0.015625        34
       30                   0                0.75                 0.5             0.03125        36
       31                0.75                0.75                 0.5             0.03125        37
       32                 0.5                0.75                 0.5             0.03125        38
       33                0.25                0.75                 0.5             0.03125        39
       34                   0                 0.5                 0.5            0.015625        40
       35                0.75                 0.5                 0.5             0.03125        41
       36                 0.5                 0.5                 0.5            0.015625        42
                               nkstot now = 36

  KPOINTS            DIRECT_X            DIRECT_Y            DIRECT_Z              WEIGHT
        1                   0                   0                   0            0.015625
        2                0.75                   0                   0             0.03125
        3                 0.5                   0                   0            0.015625
        4                   0                0.75                   0             0.03125
        5                0.75                0.75                   0             0.03125
        6                 0.5                0.75                   0             0.03125
        7                0.25                0.75                   0             0.03125
        8                   0                 0.5                   0            0.015625
        9                0.75                 0.5                   0             0.03125
       10                 0.5                 0.5                   0            0.015625
       11                   0                   0                0.75             0.03125
       12                0.75                   0                0.75             0.03125
       13                 0.5                   0                0.75             0.03125
       14                0.25                   0                0.75             0.03125
       15                   0                0.75                0.75             0.03125
       16                0.75                0.75                0.75             0.03125
       17                 0.5                0.75                0.75             0.03125
       18                0.25                0.75                0.75             0.03125
       19                   0                 0.5                0.75             0.03125
       20                0.75                 0.5                0.75             0.03125
       21                 0.5                 0.5                0.75             0.03125
       22                0.25                 0.5                0.75             0.03125
       23                   0                0.25                0.75             0.03125
       24                0.75                0.25                0.75             0.03125
       25                 0.5                0.25                0.75             0.03125
       26                0.25                0.25                0.75             0.03125
       27                   0                   0                 0.5            0.015625
       28                0.75                   0                 0.5             0.03125
       29                 0.5                   0                 0.5            0.015625
       30                   0                0.75                 0.5             0.03125
       31                0.75                0.75                 0.5             0.03125
       32                 0.5                0.75                 0.5             0.03125
       33                0.25                0.75                 0.5             0.03125
       34                   0                 0.5                 0.5            0.015625
       35                0.75                 0.5                 0.5             0.03125
       36                 0.5                 0.5                 0.5            0.015625

           k-point number in this process = 36
       minimum distributed K point number = 36

  KPOINTS         CARTESIAN_X         CARTESIAN_Y         CARTESIAN_Z              WEIGHT
        1                   0                   0                   0             0.03125
        2     0.0798420676185      0.045532050003   -0.00154118434559              0.0625
        3      0.053228045079      0.030354700002    -0.0010274562304             0.03125
        4                   0     0.0943784151871   0.000587453581219              0.0625
        5     0.0798420676185       0.13991046519  -0.000953730764374              0.0625
        6      0.053228045079      0.124733115189  -0.000440002649177              0.0625
        7     0.0266140225395      0.109555765188   7.37254660209e-05              0.0625
        8                   0     0.0629189434581   0.000391635720812             0.03125
        9     0.0798420676185      0.108450993461   -0.00114954862478              0.0625
       10      0.053228045079     0.0932736434601  -0.000635820509583             0.03125
       11                   0                   0      0.072328111499              0.0625
       12     0.0798420676185      0.045532050003     0.0707869271534              0.0625
       13      0.053228045079      0.030354700002     0.0713006552686              0.0625
       14     0.0266140225395      0.015177350001     0.0718143833838              0.0625
       15                   0     0.0943784151871     0.0729155650802              0.0625
       16     0.0798420676185       0.13991046519     0.0713743807346              0.0625
       17      0.053228045079      0.124733115189     0.0718881088498              0.0625
       18     0.0266140225395      0.109555765188      0.072401836965              0.0625
       19                   0     0.0629189434581     0.0727197472198              0.0625
       20     0.0798420676185      0.108450993461     0.0711785628742              0.0625
       21      0.053228045079     0.0932736434601     0.0716922909894              0.0625
       22     0.0266140225395     0.0780962934591     0.0722060191046              0.0625
       23                   0      0.031459471729     0.0725239293594              0.0625
       24     0.0798420676185     0.0769915217321     0.0709827450138              0.0625
       25      0.053228045079     0.0618141717311      0.071496473129              0.0625
       26     0.0266140225395       0.04663682173     0.0720102012442              0.0625
       27                   0                   0     0.0482187409993             0.03125
       28     0.0798420676185      0.045532050003     0.0466775566537              0.0625
       29      0.053228045079      0.030354700002     0.0471912847689             0.03125
       30                   0     0.0943784151871     0.0488061945805              0.0625
       31     0.0798420676185       0.13991046519      0.047265010235              0.0625
       32      0.053228045079      0.124733115189     0.0477787383502              0.0625
       33     0.0266140225395      0.109555765188     0.0482924664654              0.0625
       34                   0     0.0629189434581     0.0486103767201             0.03125
       35     0.0798420676185      0.108450993461     0.0470691923746              0.0625
       36      0.053228045079     0.0932736434601     0.0475829204897             0.03125

  KPOINTS            DIRECT_X            DIRECT_Y            DIRECT_Z              WEIGHT
        1                   0                   0                   0             0.03125
        2                0.75                   0                   0              0.0625
        3                 0.5                   0                   0             0.03125
        4                   0                0.75                   0              0.0625
        5                0.75                0.75                   0              0.0625
        6                 0.5                0.75                   0              0.0625
        7                0.25                0.75                   0              0.0625
        8                   0                 0.5                   0             0.03125
        9                0.75                 0.5                   0              0.0625
       10                 0.5                 0.5                   0             0.03125
       11                   0                   0                0.75              0.0625
       12                0.75                   0                0.75              0.0625
       13                 0.5                   0                0.75              0.0625
       14                0.25                   0                0.75              0.0625
       15                   0                0.75                0.75              0.0625
       16                0.75                0.75                0.75              0.0625
       17                 0.5                0.75                0.75              0.0625
       18                0.25                0.75                0.75              0.0625
       19                   0                 0.5                0.75              0.0625
       20                0.75                 0.5                0.75              0.0625
       21                 0.5                 0.5                0.75              0.0625
       22                0.25                 0.5                0.75              0.0625
       23                   0                0.25                0.75              0.0625
       24                0.75                0.25                0.75              0.0625
       25                 0.5                0.25                0.75              0.0625
       26                0.25                0.25                0.75              0.0625
       27                   0                   0                 0.5             0.03125
       28                0.75                   0                 0.5              0.0625
       29                 0.5                   0                 0.5             0.03125
       30                   0                0.75                 0.5              0.0625
       31                0.75                0.75                 0.5              0.0625
       32                 0.5                0.75                 0.5              0.0625
       33                0.25                0.75                 0.5              0.0625
       34                   0                 0.5                 0.5             0.03125
       35                0.75                 0.5                 0.5              0.0625
       36                 0.5                 0.5                 0.5             0.03125
 DONE : INIT K-POINTS Time : 0.0876511075537 (SEC)

                           occupied bands = 144
                                   NLOCAL = 1584
                                   NBANDS = 173
                                   NBANDS = 173




 >>>>>>>>>>>>>>>>>>>>>>>>>>>>>>>>>>>>>>>>>>>>>>>>>>>>>>>>>>>>>>>>>>>>>>
 |                                                                    |
 | Setup numerical orbitals:                                          |
 | This part setup: numerical atomic orbitals, non-local projectors   |
 | and neutral potential (1D). The atomic orbitals information        |
 | including the radius, angular momentum and zeta number.            |
 | The neutral potential is the sum of local part of pseudopotential  |
 | and potential given by atomic charge, they will cancel out beyond  |
 | a certain radius cutoff, because the Z/r character.                |
 |                                                                    |
 <<<<<<<<<<<<<<<<<<<<<<<<<<<<<<<<<<<<<<<<<<<<<<<<<<<<<<<<<<<<<<<<<<<<<<





 SETUP ONE DIMENSIONAL ORBITALS/POTENTIAL
                        delta k  (1/Bohr) = 0.01
                        delta r    (Bohr) = 0.01
                        dr_uniform (Bohr) = 0.001
                        rmax       (Bohr) = 30
                                    kmesh = 1005
      ORBITAL  L  N      nr      dr    RCUT  CHECK_UNIT    NEW_UNIT
            1  0  0     901    0.01       9           1           1
            2  0  1     901    0.01       9           1           1
            3  0  2     901    0.01       9           1           1
            4  1  0     901    0.01       9           1           1
            5  1  1     901    0.01       9           1           1
            6  1  2     901    0.01       9           1           1
            7  2  0     901    0.01       9           1           1
            8  2  1     901    0.01       9           1           1
      ORBITAL  L  N      nr      dr    RCUT  CHECK_UNIT    NEW_UNIT
            1  0  0     901    0.01       9           1           1
            2  0  1     901    0.01       9           1           1
            3  0  2     901    0.01       9           1           1
            4  1  0     901    0.01       9           1           1
            5  1  1     901    0.01       9           1           1
            6  1  2     901    0.01       9           1           1
            7  2  0     901    0.01       9           1           1
            8  2  1     901    0.01       9           1           1
 SET NONLOCAL PSEUDOPOTENTIAL PROJECTORS
 SET NONLOCAL PSEUDOPOTENTIAL PROJECTORS
 max number of nonlocal projetors among all species is 4

 SETUP THE TWO-CENTER INTEGRATION TABLES

 SETUP THE DIVISION OF H/S MATRIX
 divide the H&S matrix using 2D block algorithms.
                                     nb2d = 64
 parameter nb2d is too large: nb2d = 64
 reset nb2d to value 1, this set would make the program keep working but maybe get slower during diagonalization.
                  trace_loc_row dimension = 1584
                  trace_loc_col dimension = 1584
                                     nloc = 156816

 -------------------------------------------
 STEP OF MOLECULAR DYNAMICS : 0
 -------------------------------------------
              searching radius is (Bohr)) = 25.3
         searching radius unit is (Bohr)) = 1.89
1608100
                                 init_chg = atomic
 DONE : INIT SCF Time : 9.46869 (SEC)


 LCAO ALGORITHM --------------- ION=   1  ELEC=   1--------------------------------

 Density error is 0.272987305112

 LCAO ALGORITHM --------------- ION=   1  ELEC=   2--------------------------------

 Density error is 0.155480731709

 LCAO ALGORITHM --------------- ION=   1  ELEC=   3--------------------------------

 Density error is 0.0324381578794

 LCAO ALGORITHM --------------- ION=   1  ELEC=   4--------------------------------

 Density error is 0.0652709397393

 LCAO ALGORITHM --------------- ION=   1  ELEC=   5--------------------------------

 Density error is 0.0127832516187

 LCAO ALGORITHM --------------- ION=   1  ELEC=   6--------------------------------

 Density error is 0.00555204966926

 LCAO ALGORITHM --------------- ION=   1  ELEC=   7--------------------------------

 Density error is 0.00154231073125

 LCAO ALGORITHM --------------- ION=   1  ELEC=   8--------------------------------

 Density error is 0.00142962410658

 LCAO ALGORITHM --------------- ION=   1  ELEC=   9--------------------------------

 Density error is 0.000908657015378

 LCAO ALGORITHM --------------- ION=   1  ELEC=  10--------------------------------

 Density error is 0.000329418774839

 LCAO ALGORITHM --------------- ION=   1  ELEC=  11--------------------------------

 Density error is 0.000170397129104

 LCAO ALGORITHM --------------- ION=   1  ELEC=  12--------------------------------

 Density error is 6.92501999855e-05

 LCAO ALGORITHM --------------- ION=   1  ELEC=  13--------------------------------

 Density error is 2.59684390229e-05

 LCAO ALGORITHM --------------- ION=   1  ELEC=  14--------------------------------

 Density error is 9.58595437652e-06

 LCAO ALGORITHM --------------- ION=   1  ELEC=  15--------------------------------

 Density error is 4.90539112717e-06

 LCAO ALGORITHM --------------- ION=   1  ELEC=  16--------------------------------

 Density error is 2.39432377762e-06

 LCAO ALGORITHM --------------- ION=   1  ELEC=  17--------------------------------

 Density error is 1.3929986581e-06

 LCAO ALGORITHM --------------- ION=   1  ELEC=  18--------------------------------

 Density error is 8.0416750914e-07

 charge density convergence is achieved
 final etot is -9449.46518772 eV

 ><><><><><><><><><><><><><><><><><><><><><><><><><><><><><><><><><><><

    TOTAL-FORCE (eV/Angstrom)

 ><><><><><><><><><><><><><><><><><><><><><><><><><><><><><><><><><><><

     atom              x              y              z
      Si1         -0.35956891         +0.23916423          -0.6960115
      Si2           +0.340344          -2.9090002         +0.22835499
      Si3         -0.17349328          -4.0218118        -0.065481944
      Si4         +0.32662668         -0.46604735         +0.54861967
      Si5         -0.25562451          +4.7558626          +1.5044371
      Si6         -0.15803505          +5.0325297          +1.5733358
      Si7         -0.27753104           -0.146412          -0.6864994
      Si8         +0.22114264          -3.3183765         -0.10749802
      Si9         -0.49079173          -4.1289894        -0.018141213
     Si10         +0.56993237         -0.40421267          +1.2638092
     Si11         +0.10855787          +5.1015942          +2.4802751
     Si12         +0.41551857          +5.7296989          +3.1004626
     Si13         -0.40553487         -0.44678581          -1.0777674
     Si14        -0.099197695         -0.11202437          -0.4087996
     Si15         +0.19335221          -3.5403804         +0.23719271
     Si16        +0.026235012          +0.2088033         +0.33322407
     Si17         +0.42834462        -0.076155399          -0.2753369
     Si18          +0.2217565          +5.1615624          +1.7116428
     Si19         -0.22508886         -0.23038216         -0.58789173
     Si20         +0.32654801        -0.098783392         -0.32680797
     Si21        +0.081420142          -3.3816471         +0.37023938
     Si22         +0.44773599          +0.0231588          +1.3638792
     Si23         +0.15934609        -0.041953366         +0.80576064
     Si24         +0.34962765          +4.5952724          +2.4480446
     Si25         +0.34334759           +0.802677         -0.07583721
     Si26        +0.043005007         +0.86796851         -0.39397257
     Si27        +0.084462481        -0.027102689         -0.28140572
     Si28         +0.17491811         -0.59002876        +0.072036828
     Si29         -0.37808561         -0.66389441        -0.039666157
     Si30         -0.19977338         -0.31986302        +0.075442854
     Si31         -0.24861711         +0.67355951         -0.12921013
     Si32         -0.15007797         +0.44015394         -0.45840136
     Si33        -0.072845924        +0.058410779         -0.60224702
     Si34          +0.4381175         -0.20475261          +0.8824147
     Si35         +0.33731331         -0.79622098           +1.108289
     Si36         +0.42768325         +0.24488866         +0.86934625
       C1          -0.1848814        +0.095873184        -0.036465267
       C2        +0.041775781          -4.5505973           -1.705288
       C3         -0.15571791          -5.1447227          -2.1621165
       C4         +0.32791815        -0.046650729         +0.89925023
       C5        -0.058071281           +3.810492         -0.75296923
       C6         +0.28506139          +3.8391626         +0.18411999
       C7        -0.036162663          -0.2104559         +0.24510903
       C8         -0.19259876          -5.4813442          -1.4134943
       C9         -0.20300046           -5.468556          -2.0911744
      C10         +0.10964546         -0.20608413        -0.066985683
      C11         -0.56715097          +3.6210543          -1.7946966
      C12        -0.061271077          +3.7230742         -0.92598333
      C13         -0.10150235         -0.19836678         -0.24426924
      C14          -0.1089637         +0.38677449        +0.086852715
      C15         -0.20776931          -5.0998212          -1.7427751
      C16         +0.33502717         +0.34938515         +0.64815874
      C17         -0.12467702         +0.13802315         +0.44674425
      C18         +0.15993555          +3.2811285         -0.68247079
      C19         -0.22735443         -0.19493974        -0.071042264
      C20        -0.012403428         -0.25095064         +0.31746659
      C21        +0.088095426          -4.7021435          -1.5275158
      C22        +0.052177322         +0.41111462         -0.15633321
      C23          -0.3026285         -0.12734906         -0.75384632
      C24         -0.51915048          +3.7970427           -1.804482
      C25         -0.28460993         +0.53656223        +0.047303687
      C26         +0.22057373         +0.65977773         +0.35946893
      C27        -0.034803347         +0.21493403         +0.01475805
      C28         +0.16771577         -0.48703626         +0.65637612
      C29         +0.30703011          -0.7554544         +0.25199703
      C30        -0.081192737         +0.13418607         -0.18613055
      C31        +0.095272195         +0.48190889         +0.41358468
      C32        -0.051391055         +0.71397939         +0.51146238
      C33         +0.18970178         +0.22673822         +0.28052808
      C34         -0.56008947         -0.74243009         -0.75018442
      C35         -0.44884093         -0.63557506         -0.51167611
      C36         -0.42676829         -0.12921426         -0.72911295


 ><><><><><><><><><><><><><><><><><><><><><><><><><><><><><><><><><><><

 TOTAL-STRESS (KBAR)

 ><><><><><><><><><><><><><><><><><><><><><><><><><><><><><><><><><><><

              -62.388183             -31.815905             -30.510199
              -31.815905            +138.342154             +11.781520
              -30.510199             +11.781520             -86.725750
 TOTAL-PRESSURE: -3.590593 KBAR


 ------------------------------------------------------------------------------------------------
 Energy              Potential           Kinetic             Temperature         Pressure (KBAR)     
 -347.25794          -347.26132          +0.0033726584       +10                 -3.4639531          
 ------------------------------------------------------------------------------------------------

output Pressure for check!
Virtual Pressure is -3.4639531 Kbar 
Virial Term is -3.5905929 Kbar 
Kenetic Term is +0.12663985 Kbar 


 ><><><><><><><><><><><><><><><><><><><><><><><><><><><><><><><><><><><

 MD STRESS (KBAR)

 ><><><><><><><><><><><><><><><><><><><><><><><><><><><><><><><><><><><

-62.271173     -31.838031     -30.509168     
-31.838031     +138.46259     +11.761935     
-30.509168     +11.761935     -86.583281     



 -------------------------------------------
 STEP OF MOLECULAR DYNAMICS : 1
 -------------------------------------------
 NEW-OLD atomic charge density approx. for the potential !
 searching radius is (Bohr))              = +25.29
 searching radius unit is (Bohr))         = +1.8897261
+1608100
 DONE : INIT SCF Time : +1942.98 (SEC)


 LCAO ALGORITHM --------------- ION=+2    ELEC=+1  --------------------------------

 Density error is +0.000605162678226

 LCAO ALGORITHM --------------- ION=+2    ELEC=+2  --------------------------------

 Density error is +0.00045889516764

 LCAO ALGORITHM --------------- ION=+2    ELEC=+3  --------------------------------

 Density error is +0.000421510102864

 LCAO ALGORITHM --------------- ION=+2    ELEC=+4  --------------------------------

 Density error is +7.56542435616e-05

 LCAO ALGORITHM --------------- ION=+2    ELEC=+5  --------------------------------

 Density error is +5.49713696043e-05

 LCAO ALGORITHM --------------- ION=+2    ELEC=+6  --------------------------------

 Density error is +3.09256956896e-05

 LCAO ALGORITHM --------------- ION=+2    ELEC=+7  --------------------------------

 Density error is +8.66653781637e-06

 LCAO ALGORITHM --------------- ION=+2    ELEC=+8  --------------------------------

 Density error is +2.14479736199e-06

 LCAO ALGORITHM --------------- ION=+2    ELEC=+9  --------------------------------

 Density error is +1.16184080339e-06

 LCAO ALGORITHM --------------- ION=+2    ELEC=+10 --------------------------------

 Density error is +6.46762412148e-07

 charge density convergence is achieved
 final etot is -9449.64155976 eV

 ><><><><><><><><><><><><><><><><><><><><><><><><><><><><><><><><><><><

    TOTAL-FORCE (eV/Angstrom)

 ><><><><><><><><><><><><><><><><><><><><><><><><><><><><><><><><><><><

 atom    x              y              z              
 Si1     -0.37924505         +0.26890321         -0.72158178         
 Si2     +0.34654516         -2.8236606          +0.18622819         
 Si3     -0.169533           -4.0071999          -0.086555925        
 Si4     +0.30362824         -0.43983582         +0.54621648         
 Si5     -0.26874943         +4.5995104          +1.4450145          
 Si6     -0.18168609         +4.9179497          +1.5449776          
 Si7     -0.2840199          -0.1329806          -0.67847875         
 Si8     +0.20993987         -3.2902837          -0.12103614         
 Si9     -0.49764658         -4.0887903          -0.0216388          
 Si10    +0.58012186         -0.43368245         +1.2488068          
 Si11    +0.094173599        +4.9285308          +2.4210221          
 Si12    +0.4083809          +5.6286997          +3.0585977          
 Si13    -0.41014744         -0.4444383          -1.0755781          
 Si14    -0.10655253         -0.12073072         -0.42343079         
 Si15    +0.18870445         -3.4633337          +0.22716312         
 Si16    +0.041796352        +0.23088726         +0.31814919         
 Si17    +0.43544406         -0.080285056        -0.3001596          
 Si18    +0.2160711          +5.0349808          +1.6586349          
 Si19    -0.22494934         -0.24003259         -0.57953618         
 Si20    +0.30803638         -0.11080874         -0.30705997         
 Si21    +0.09629946         -3.3073207          +0.36362543         
 Si22    +0.42253322         +0.023738754        +1.3731673          
 Si23    +0.16139455         -0.038043555        +0.81258288         
 Si24    +0.32030939         +4.4693778          +2.4107101          
 Si25    +0.34602424         +0.8019701          -0.070877925        
 Si26    +0.044847208        +0.85980069         -0.40575537         
 Si27    +0.084690731        -0.027632452        -0.28186351         
 Si28    +0.19226645         -0.60832461         +0.076850229        
 Si29    -0.37675523         -0.65732602         -0.051213739        
 Si30    -0.19203523         -0.3170302          +0.069343304        
 Si31    -0.265614           +0.7006304          -0.13819697         
 Si32    -0.1121251          +0.43953717         -0.46133275         
 Si33    -0.077440963        +0.074113626        -0.62401953         
 Si34    +0.4301332          -0.2094528          +0.89136133         
 Si35    +0.32058244         -0.8062981          +1.1164115          
 Si36    +0.40904043         +0.23509843         +0.87140947         
 C1      -0.15330519         +0.10517772         -0.027072253        
 C2      +0.050044161        -4.4385743          -1.6338574          
 C3      -0.12950178         -4.9623354          -2.0932385          
 C4      +0.32428213         -0.067694457        +0.88577095         
 C5      -0.038313445        +3.7505912          -0.73560917         
 C6      +0.26659328         +3.7867866          +0.19187891         
 C7      -0.034607278        -0.21516789         +0.24578126         
 C8      -0.17290111         -5.3360095          -1.3697762          
 C9      -0.20953786         -5.2831515          -2.0215756          
 C10     +0.099405166        -0.18460117         -0.073227743        
 C11     -0.57189021         +3.5704336          -1.7781627          
 C12     -0.054919133        +3.6155203          -0.88288803         
 C13     -0.11626837         -0.22779227         -0.23298525         
 C14     -0.12560148         +0.37361697         +0.11812389         
 C15     -0.20960419         -4.9515673          -1.7038713          
 C16     +0.32212351         +0.3623471          +0.66526074         
 C17     -0.10206331         +0.131168           +0.47482319         
 C18     +0.14187153         +3.1910182          -0.65859373         
 C19     -0.19292446         -0.20152409         -0.073416992        
 C20     -0.0051729299       -0.24352591         +0.28794845         
 C21     +0.097865602        -4.5541446          -1.4838986          
 C22     +0.061102948        +0.42896907         -0.1587642          
 C23     -0.29766215         -0.12180912         -0.75620176         
 C24     -0.52480418         +3.7149662          -1.7694423          
 C25     -0.29553605         +0.54064296         +0.03946385         
 C26     +0.22908302         +0.65221781         +0.36387181         
 C27     -0.043822334        +0.17537601         +0.017450249        
 C28     +0.18044301         -0.48478381         +0.62748211         
 C29     +0.30068661         -0.75382971         +0.2202566          
 C30     -0.074378404        +0.15168126         -0.17526992         
 C31     +0.1132754          +0.47550846         +0.41820823         
 C32     -0.04157876         +0.7027787          +0.49734651         
 C33     +0.20410599         +0.23894882         +0.30201886         
 C34     -0.54328699         -0.75412639         -0.77822243         
 C35     -0.44420788         -0.6189443          -0.53136477         
 C36     -0.42345829         -0.13440506         -0.71020288         


 ><><><><><><><><><><><><><><><><><><><><><><><><><><><><><><><><><><><

 TOTAL-STRESS (KBAR)

 ><><><><><><><><><><><><><><><><><><><><><><><><><><><><><><><><><><><

 -62.053586             -31.961946             -30.649033             
 -31.961946             +135.851089            +11.458415             
 -30.649033             +11.458415             -86.903496             
 TOTAL-PRESSURE: -4.368664 KBAR


 ------------------------------------------------------------------------------------------------
 Energy              Potential           Kinetic             Temperature         Pressure (KBAR)     
 -347.25689          -347.2678           +0.010909887        +32.348033          -3.9590093          
 ------------------------------------------------------------------------------------------------

output Pressure for check!
Virtual Pressure is -3.9590093 Kbar 
Virial Term is -4.3686643 Kbar 
Kenetic Term is +0.40965501 Kbar 


 ><><><><><><><><><><><><><><><><><><><><><><><><><><><><><><><><><><><

 MD STRESS (KBAR)

 ><><><><><><><><><><><><><><><><><><><><><><><><><><><><><><><><><><><

-61.787374     -31.877905     -30.590239     
-31.877905     +136.56624     +11.561333     
-30.590239     +11.561333     -86.655896     



 -------------------------------------------
 STEP OF MOLECULAR DYNAMICS : 2
 -------------------------------------------
 first order charge density extrapolation !
 searching radius is (Bohr))              = +25.29
 searching radius unit is (Bohr))         = +1.8897261
+1608646
 DONE : INIT SCF Time : +3057.37 (SEC)


 LCAO ALGORITHM --------------- ION=+3    ELEC=+1  --------------------------------

 Density error is +0.0016031483721

 LCAO ALGORITHM --------------- ION=+3    ELEC=+2  --------------------------------

 Density error is +0.00109198636778

 LCAO ALGORITHM --------------- ION=+3    ELEC=+3  --------------------------------

 Density error is +0.000969060164707

 LCAO ALGORITHM --------------- ION=+3    ELEC=+4  --------------------------------

 Density error is +0.000241994413239

 LCAO ALGORITHM --------------- ION=+3    ELEC=+5  --------------------------------

 Density error is +0.000179792393634

 LCAO ALGORITHM --------------- ION=+3    ELEC=+6  --------------------------------

 Density error is +6.75376599845e-05

 LCAO ALGORITHM --------------- ION=+3    ELEC=+7  --------------------------------

 Density error is +2.81164987129e-05

 LCAO ALGORITHM --------------- ION=+3    ELEC=+8  --------------------------------

 Density error is +5.50938643159e-06

 LCAO ALGORITHM --------------- ION=+3    ELEC=+9  --------------------------------

 Density error is +3.43663225884e-06

 LCAO ALGORITHM --------------- ION=+3    ELEC=+10 --------------------------------

 Density error is +1.44682749131e-06

 LCAO ALGORITHM --------------- ION=+3    ELEC=+11 --------------------------------

 Density error is +5.25373241969e-07

 charge density convergence is achieved
 final etot is -9449.95248932 eV

 ><><><><><><><><><><><><><><><><><><><><><><><><><><><><><><><><><><><

    TOTAL-FORCE (eV/Angstrom)

 ><><><><><><><><><><><><><><><><><><><><><><><><><><><><><><><><><><><

 atom    x              y              z              
 Si1     -0.43535335         +0.32735827         -0.66365885         
 Si2     +0.34556867         -2.7742937          +0.13911018         
 Si3     -0.17251994         -3.8676201          -0.14630639         
 Si4     +0.29184782         -0.46045636         +0.49687394         
 Si5     -0.32328043         +4.3864845          +1.4167809          
 Si6     -0.22742673         +4.6840525          +1.417939           
 Si7     -0.28218987         -0.078164875        -0.70797895         
 Si8     +0.19166797         -3.2539485          -0.17906099         
 Si9     -0.51533236         -4.0860886          -0.042895012        
 Si10    +0.60566885         -0.51453613         +1.2578957          
 Si11    +0.03639033         +4.7064553          +2.3420747          
 Si12    +0.36251372         +5.3087783          +2.9560516          
 Si13    -0.41263743         -0.44092265         -1.093506           
 Si14    -0.18672823         -0.17195046         -0.44332084         
 Si15    +0.16264963         -3.3865218          +0.19035793         
 Si16    -8.8295311e-05      +0.21047871         +0.3598763          
 Si17    +0.43533311         +0.061286956        -0.3279452          
 Si18    +0.16481357         +4.7295215          +1.544437           
 Si19    -0.2113761          -0.21507127         -0.5636948          
 Si20    +0.36508382         -0.14630305         -0.31032701         
 Si21    +0.10478865         -3.3012175          +0.37088696         
 Si22    +0.4788557          +0.084077436        +1.3764029          
 Si23    +0.20982079         -0.04630042         +0.74545185         
 Si24    +0.28399795         +4.1730787          +2.2940517          
 Si25    +0.30887003         +0.72521478         -0.043189689        
 Si26    +0.1016363          +0.89333773         -0.43302316         
 Si27    +0.14173615         +0.036408639        -0.3093143          
 Si28    +0.15900777         -0.63921158         +0.12091067         
 Si29    -0.40300951         -0.71964665         -0.067851218        
 Si30    -0.25655359         -0.3324995          +0.060561542        
 Si31    -0.25619303         +0.72637223         -0.097343514        
 Si32    -0.13432679         +0.43066879         -0.43968107         
 Si33    -0.13359591         +0.085329513        -0.55412731         
 Si34    +0.38797794         -0.25963819         +0.83961885         
 Si35    +0.21772066         -0.84805329         +1.0494218          
 Si36    +0.32660863         +0.27509805         +0.8477265          
 C1      -0.14165985         +0.12998538         -0.057149185        
 C2      +0.12299475         -4.1533787          -1.5038308          
 C3      -0.10901522         -4.7712833          -1.9832829          
 C4      +0.32998866         -0.073104731        +0.92261645         
 C5      -0.026738367        +3.7644312          -0.75833188         
 C6      +0.2408077          +3.6733005          +0.23110438         
 C7      +0.058217498        -0.23014255         +0.23724211         
 C8      -0.13448463         -4.8883409          -1.2064396          
 C9      -0.12344958         -5.1125506          -1.9235013          
 C10     +0.036949503        -0.24664284         -0.11635245         
 C11     -0.47681397         +3.4167386          -1.7107207          
 C12     -0.10830667         +3.5062007          -0.8974467          
 C13     -0.041219409        -0.19186919         -0.27392677         
 C14     -0.062429888        +0.30577306         +0.067916529        
 C15     -0.2008116          -4.6011969          -1.6625866          
 C16     +0.37425799         +0.30730171         +0.59841588         
 C17     -0.137928           +0.065968911        +0.53716315         
 C18     +0.1804734          +3.1750077          -0.58305908         
 C19     -0.20542132         -0.17239817         -0.011537404        
 C20     +0.043765043        -0.3161514          +0.37031891         
 C21     +0.17956405         -4.1667094          -1.3845205          
 C22     +0.01852674         +0.35156144         -0.086351606        
 C23     -0.33235946         -0.0053536309       -0.73411777         
 C24     -0.53737082         +3.5878775          -1.6778804          
 C25     -0.22704615         +0.47297756         -0.012558198        
 C26     +0.27801433         +0.72491419         +0.37365738         
 C27     -0.098370717        +0.1172561          +0.040289183        
 C28     +0.11832107         -0.35344782         +0.58700865         
 C29     +0.33582772         -0.7562214          +0.19088785         
 C30     -0.058688135        +0.084840985        -0.19096081         
 C31     +0.14483522         +0.56695247         +0.35262875         
 C32     -0.082123458        +0.62401762         +0.45077152         
 C33     +0.11654161         +0.26489596         +0.25433247         
 C34     -0.47178444         -0.76693367         -0.73502608         
 C35     -0.42091748         -0.54936279         -0.47054179         
 C36     -0.31409262         -0.086470699        -0.63743655         


 ><><><><><><><><><><><><><><><><><><><><><><><><><><><><><><><><><><><

 TOTAL-STRESS (KBAR)

 ><><><><><><><><><><><><><><><><><><><><><><><><><><><><><><><><><><><

 -61.533240             -31.943787             -31.074119             
 -31.943787             +131.247751            +10.478786             
 -31.074119             +10.478786             -87.334239             
 TOTAL-PRESSURE: -5.873243 KBAR


 ------------------------------------------------------------------------------------------------
 Energy              Potential           Kinetic             Temperature         Pressure (KBAR)     
 -347.25306          -347.27922          +0.026161265        +77.568676          -4.8909143          
 ------------------------------------------------------------------------------------------------

output Pressure for check!
Virtual Pressure is -4.8909143 Kbar 
Virial Term is -5.8732429 Kbar 
Kenetic Term is +0.98232857 Kbar 


 ><><><><><><><><><><><><><><><><><><><><><><><><><><><><><><><><><><><

 MD STRESS (KBAR)

 ><><><><><><><><><><><><><><><><><><><><><><><><><><><><><><><><><><><

-60.641948     -31.750336     -30.921195     
-31.750336     +132.59389     +10.59057      
-30.921195     +10.59057      -86.624685     



 -------------------------------------------
 STEP OF MOLECULAR DYNAMICS : 3
 -------------------------------------------
 second order charge density extrapolation !
 searching radius is (Bohr))              = +25.29
 searching radius unit is (Bohr))         = +1.8897261
+1608334
 DONE : INIT SCF Time : +4272.33 (SEC)


 LCAO ALGORITHM --------------- ION=+4    ELEC=+1  --------------------------------

 Density error is +0.00195611479731

 LCAO ALGORITHM --------------- ION=+4    ELEC=+2  --------------------------------

 Density error is +0.00129333026817

 LCAO ALGORITHM --------------- ION=+4    ELEC=+3  --------------------------------

 Density error is +0.00120769353837

 LCAO ALGORITHM --------------- ION=+4    ELEC=+4  --------------------------------

 Density error is +0.000345146693418

 LCAO ALGORITHM --------------- ION=+4    ELEC=+5  --------------------------------

 Density error is +0.000213836883959

 LCAO ALGORITHM --------------- ION=+4    ELEC=+6  --------------------------------

 Density error is +7.37281634747e-05

 LCAO ALGORITHM --------------- ION=+4    ELEC=+7  --------------------------------

 Density error is +2.89099243703e-05

 LCAO ALGORITHM --------------- ION=+4    ELEC=+8  --------------------------------

 Density error is +8.0794596323e-06

 LCAO ALGORITHM --------------- ION=+4    ELEC=+9  --------------------------------

 Density error is +4.95536664877e-06

 LCAO ALGORITHM --------------- ION=+4    ELEC=+10 --------------------------------

 Density error is +1.87848812529e-06

 LCAO ALGORITHM --------------- ION=+4    ELEC=+11 --------------------------------

 Density error is +5.35994600009e-07

 charge density convergence is achieved
 final etot is -9450.27152464 eV

 ><><><><><><><><><><><><><><><><><><><><><><><><><><><><><><><><><><><

    TOTAL-FORCE (eV/Angstrom)

 ><><><><><><><><><><><><><><><><><><><><><><><><><><><><><><><><><><><

 atom    x              y              z              
 Si1     -0.48238092         +0.497468           -0.68989491         
 Si2     +0.27556202         -2.570168           -0.027569659        
 Si3     -0.15332099         -3.6793518          -0.23683844         
 Si4     +0.33671801         -0.49621583         +0.47206255         
 Si5     -0.39532881         +4.016823           +1.3108224          
 Si6     -0.2162777          +4.3442867          +1.3279568          
 Si7     -0.24691504         -0.089202268        -0.69288576         
 Si8     +0.25870792         -3.1879972          -0.27942051         
 Si9     -0.47957396         -3.9744413          -0.14993543         
 Si10    +0.60742397         -0.57284451         +1.2187505          
 Si11    -0.049316452        +4.4907358          +2.2444361          
 Si12    +0.37889673         +5.1099755          +2.8630886          
 Si13    -0.3914608          -0.46917901         -0.99819938         
 Si14    -0.29215976         -0.22680396         -0.51655778         
 Si15    +0.2016964          -3.2364853          +0.15531016         
 Si16    -0.09648993         +0.32187553         +0.38421264         
 Si17    +0.45751            +0.081568897        -0.41456181         
 Si18    +0.1277383          +4.5701042          +1.397332           
 Si19    -0.30525409         -0.24851259         -0.47637999         
 Si20    +0.388703           -0.018313889        -0.17415759         
 Si21    +0.15450958         -3.1580887          +0.3422737          
 Si22    +0.44205016         +0.0054043528       +1.3855593          
 Si23    +0.206155           +0.06183241         +0.81963141         
 Si24    +0.29617373         +4.0667403          +2.30957            
 Si25    +0.3087923          +0.82278997         -0.084822316        
 Si26    +0.052899984        +0.98784034         -0.47526598         
 Si27    +0.079022784        +0.021311789        -0.3066109          
 Si28    +0.046899469        -0.67958444         +0.15946565         
 Si29    -0.472864           -0.82441209         -0.17593226         
 Si30    -0.37074529         -0.24151241         -0.0055686573       
 Si31    -0.36765528         +0.81474781         -0.014111324        
 Si32    -0.04247604         +0.41404757         -0.39449622         
 Si33    -0.095736178        +0.16459117         -0.45172398         
 Si34    +0.3250262          -0.29801884         +0.90725724         
 Si35    +0.17079673         -0.92181347         +1.0509174          
 Si36    +0.27967109         +0.26887882         +0.89943126         
 C1      -0.14093634         +0.15765526         -0.060827471        
 C2      +0.21583446         -3.7080845          -1.3525889          
 C3      -0.043671401        -4.4996735          -1.7891951          
 C4      +0.21125824         -0.070160874        +0.95876826         
 C5      -0.040689195        +3.6234119          -0.66429875         
 C6      +0.14544554         +3.5024145          +0.31591819         
 C7      +0.15629182         -0.26160898         +0.25037288         
 C8      -0.050699095        -4.6077038          -1.0563628          
 C9      -0.056782269        -4.8075016          -1.7319593          
 C10     +0.025501556        -0.16639794         -0.13138751         
 C11     -0.42531815         +3.1254645          -1.6924573          
 C12     -0.13946265         +3.1385379          -0.8279922          
 C13     +0.085646537        -0.09706035         -0.2756809          
 C14     +0.00084791798      +0.19432005         +0.19792191         
 C15     -0.1622399          -4.3706901          -1.6126697          
 C16     +0.35079083         +0.30848395         +0.58678303         
 C17     -0.20581831         +0.029389895        +0.43601944         
 C18     +0.24729405         +2.9502946          -0.50245506         
 C19     -0.13560294         -0.036945441        -0.091007614        
 C20     +0.072367368        -0.38158451         +0.22318573         
 C21     +0.12405525         -4.0740542          -1.4195064          
 C22     +0.0047256644       +0.31864651         -0.10257577         
 C23     -0.32503094         -0.037610319        -0.74510604         
 C24     -0.44763517         +3.4067998          -1.6134369          
 C25     -0.12244322         +0.56901209         +0.073906812        
 C26     +0.20196804         +0.60441064         +0.33638417         
 C27     -0.041362732        +0.033140122        +0.10437572         
 C28     +0.1834092          -0.431664           +0.61481608         
 C29     +0.30721452         -0.663236           +0.26259164         
 C30     +0.02419221         +0.033652108        -0.29384804         
 C31     +0.19264503         +0.52180582         +0.24169986         
 C32     -0.19284195         +0.72405724         +0.45633293         
 C33     +0.10071237         +0.20875826         +0.14593047         
 C34     -0.36692783         -0.7231166          -0.75917811         
 C35     -0.50540403         -0.56970721         -0.53930896         
 C36     -0.18433262         -0.1115318          -0.62630896         


 ><><><><><><><><><><><><><><><><><><><><><><><><><><><><><><><><><><><

 TOTAL-STRESS (KBAR)

 ><><><><><><><><><><><><><><><><><><><><><><><><><><><><><><><><><><><

 -60.280941             -31.915500             -31.656154             
 -31.915500             +125.836480            +10.486417             
 -31.656154             +10.486417             -87.757579             
 TOTAL-PRESSURE: -7.400680 KBAR


 ------------------------------------------------------------------------------------------------
 Energy              Potential           Kinetic             Temperature         Pressure (KBAR)     
 -347.26132          -347.29095          +0.02962859         +87.849365          -6.2881571          
 ------------------------------------------------------------------------------------------------

output Pressure for check!
Virtual Pressure is -6.2881571 Kbar 
Virial Term is -7.4006802 Kbar 
Kenetic Term is +1.1125231 Kbar 


 ><><><><><><><><><><><><><><><><><><><><><><><><><><><><><><><><><><><

 MD STRESS (KBAR)

 ><><><><><><><><><><><><><><><><><><><><><><><><><><><><><><><><><><><

-59.33487      -32.074477     -31.738915     
-32.074477     +127.40615     +10.531112     
-31.738915     +10.531112     -86.935754     



 -------------------------------------------
 STEP OF MOLECULAR DYNAMICS : 4
 -------------------------------------------
 second order charge density extrapolation !
 searching radius is (Bohr))              = +25.29
 searching radius unit is (Bohr))         = +1.8897261
+1608978
 DONE : INIT SCF Time : +5486.98 (SEC)


 LCAO ALGORITHM --------------- ION=+5    ELEC=+1  --------------------------------

 Density error is +0.00245458724118

 LCAO ALGORITHM --------------- ION=+5    ELEC=+2  --------------------------------

 Density error is +0.00148933942921

 LCAO ALGORITHM --------------- ION=+5    ELEC=+3  --------------------------------

 Density error is +0.00138237169497

 LCAO ALGORITHM --------------- ION=+5    ELEC=+4  --------------------------------

 Density error is +0.000330723603001

 LCAO ALGORITHM --------------- ION=+5    ELEC=+5  --------------------------------

 Density error is +0.000256420609291

 LCAO ALGORITHM --------------- ION=+5    ELEC=+6  --------------------------------

 Density error is +0.000103757907831

 LCAO ALGORITHM --------------- ION=+5    ELEC=+7  --------------------------------

 Density error is +3.88552835008e-05

 LCAO ALGORITHM --------------- ION=+5    ELEC=+8  --------------------------------

 Density error is +7.77361185293e-06

 LCAO ALGORITHM --------------- ION=+5    ELEC=+9  --------------------------------

 Density error is +4.78069844275e-06

 LCAO ALGORITHM --------------- ION=+5    ELEC=+10 --------------------------------

 Density error is +2.03388856863e-06

 LCAO ALGORITHM --------------- ION=+5    ELEC=+11 --------------------------------

 Density error is +7.67460469983e-07

 charge density convergence is achieved
 final etot is -9450.45805491 eV

 ><><><><><><><><><><><><><><><><><><><><><><><><><><><><><><><><><><><

    TOTAL-FORCE (eV/Angstrom)

 ><><><><><><><><><><><><><><><><><><><><><><><><><><><><><><><><><><><

 atom    x              y              z              
 Si1     -0.49115261         +0.47602881         -0.71795884         
 Si2     +0.45969715         -2.5855018          +0.024763104        
 Si3     -0.12279533         -3.4671573          -0.30170676         
 Si4     +0.39294533         -0.49875938         +0.50424853         
 Si5     -0.42054616         +3.7654132          +1.2351396          
 Si6     -0.17612289         +3.9923779          +1.1276618          
 Si7     -0.22813665         -0.061740193        -0.60073433         
 Si8     +0.36082259         -3.3135021          -0.19131604         
 Si9     -0.58714556         -3.9554445          -0.17919129         
 Si10    +0.59074179         -0.61735569         +1.2410235          
 Si11    -0.048812056        +4.4191685          +2.2143302          
 Si12    +0.30961531         +4.8338817          +2.8159481          
 Si13    -0.50567054         -0.44322204         -0.93059358         
 Si14    -0.27372838         -0.24622206         -0.36874056         
 Si15    +0.18939487         -3.1650299          +0.26240098         
 Si16    -0.18377419         +0.39053947         +0.32417672         
 Si17    +0.4273353          +0.098601145        -0.43330941         
 Si18    +0.23810073         +4.3730081          +1.2806144          
 Si19    -0.17503515         -0.31011447         -0.40503256         
 Si20    +0.32207116         -0.078126746        -0.19262434         
 Si21    +0.19783425         -3.1173008          +0.26094978         
 Si22    +0.40045288         +0.019338592        +1.4441217          
 Si23    +0.091530215        +0.20176177         +0.78515179         
 Si24    +0.25170653         +4.0755803          +2.2919113          
 Si25    +0.36375691         +0.81459111         -0.20137572         
 Si26    +0.13617968         +0.99166723         -0.4838558          
 Si27    +0.12667179         +0.12837999         -0.41616718         
 Si28    +0.028990583        -0.55498539         +0.15356349         
 Si29    -0.44946732         -0.71482999         -0.12758189         
 Si30    -0.37868427         -0.15240279         +0.1087478          
 Si31    -0.3565095          +0.72931239         -0.092517349        
 Si32    -0.13782596         +0.41685713         -0.30409884         
 Si33    -0.12033401         +0.27378441         -0.40168387         
 Si34    +0.29936357         -0.35204901         +0.87324513         
 Si35    +0.17429389         -0.93100704         +1.0589891          
 Si36    +0.38852047         +0.22021419         +0.80801058         
 C1      -0.049202774        +0.073186229        -0.014394088        
 C2      +0.12149748         -3.3601507          -1.2434413          
 C3      -0.034560302        -4.2153882          -1.792731           
[...]
 C14     +0.18087345         -0.15026463         +0.46387746         
 C15     -0.12264986         -4.043699           -1.7021337          
 C16     +0.3894437          -0.056443131        +0.32799786         
 C17     +0.092596108        +0.41230823         +0.56904293         
 C18     +0.17953532         +2.5626782          +0.23542157         
 C19     +0.21465053         -0.035646318        -0.17157451         
 C20     +0.17875351         -0.59255345         +0.6099615          
 C21     +0.19775807         -2.6018921          -1.0691463          
 C22     -0.35150422         +0.29217724         -0.078484641        
 C23     -0.48745955         +0.040680586        -0.4295821          
 C24     -1.0072799          +2.8508682          -1.7270861          
 C25     -0.41630471         +0.4197806          -0.00078424327      
 C26     -0.18085443         +0.84651465         +0.54968504         
 C27     -0.51245567         -0.24095085         +0.30048085         
 C28     +0.15552499         -0.19420058         -0.034716564        
 C29     +0.30805842         -0.76309571         +0.0065815674       
 C30     -0.22517825         -0.097055258        -0.14110149         
 C31     +0.19346781         +0.1880222          +0.57686813         
 C32     +0.10751184         +0.74994401         +0.45635739         
 C33     -0.073642007        +0.23388776         +0.28943753         
 C34     -0.40521457         -0.50635112         -0.74049062         
 C35     -0.39146175         +0.27561495         -0.89520907         
 C36     -0.40331811         +0.0026253508       -0.30699318         


 ><><><><><><><><><><><><><><><><><><><><><><><><><><><><><><><><><><><

 TOTAL-STRESS (KBAR)

 ><><><><><><><><><><><><><><><><><><><><><><><><><><><><><><><><><><><

 -59.559839             -30.413397             -31.354158             
 -30.413397             +108.185820            +8.009016              
 -31.354158             +8.009016              -87.628078             
 TOTAL-PRESSURE: -13.000699 KBAR


 ------------------------------------------------------------------------------------------------
 Energy              Potential           Kinetic             Temperature         Pressure (KBAR)     
 -347.24977          -347.33009          +0.080325135        +238.16564          -9.9845731          
 ------------------------------------------------------------------------------------------------

output Pressure for check!
Virtual Pressure is -9.9845731 Kbar 
Virial Term is -13.000699 Kbar 
Kenetic Term is +3.0161261 Kbar 


 ><><><><><><><><><><><><><><><><><><><><><><><><><><><><><><><><><><><

 MD STRESS (KBAR)

 ><><><><><><><><><><><><><><><><><><><><><><><><><><><><><><><><><><><

-57.090292     -30.783231     -30.987602     
-30.783231     +111.53017     +7.7041123     
-30.987602     +7.7041123     -84.393599     



 -------------------------------------------
 STEP OF MOLECULAR DYNAMICS : 10
 -------------------------------------------
 second order charge density extrapolation !
 searching radius is (Bohr))              = +25.29
 searching radius unit is (Bohr))         = +1.8897261
+1608344
 DONE : INIT SCF Time : +13082.4 (SEC)


 LCAO ALGORITHM --------------- ION=+11   ELEC=+1  --------------------------------

 Density error is +0.00350405654748

 LCAO ALGORITHM --------------- ION=+11   ELEC=+2  --------------------------------

 Density error is +0.00216569128704

 LCAO ALGORITHM --------------- ION=+11   ELEC=+3  --------------------------------

 Density error is +0.001919857825

 LCAO ALGORITHM --------------- ION=+11   ELEC=+4  --------------------------------

 Density error is +0.000474910662242

 LCAO ALGORITHM --------------- ION=+11   ELEC=+5  --------------------------------

 Density error is +0.00040425617317

 LCAO ALGORITHM --------------- ION=+11   ELEC=+6  --------------------------------

 Density error is +0.000143279767591

 LCAO ALGORITHM --------------- ION=+11   ELEC=+7  --------------------------------

 Density error is +5.54949320533e-05

 LCAO ALGORITHM --------------- ION=+11   ELEC=+8  --------------------------------

 Density error is +1.18049042877e-05

 LCAO ALGORITHM --------------- ION=+11   ELEC=+9  --------------------------------

 Density error is +6.2491584301e-06

 LCAO ALGORITHM --------------- ION=+11   ELEC=+10 --------------------------------

 Density error is +3.29547283084e-06

 LCAO ALGORITHM --------------- ION=+11   ELEC=+11 --------------------------------

 Density error is +1.34009248724e-06

 LCAO ALGORITHM --------------- ION=+11   ELEC=+12 --------------------------------

 Density error is +3.45229325807e-07

 charge density convergence is achieved
 final etot is -9451.4250885 eV

 ><><><><><><><><><><><><><><><><><><><><><><><><><><><><><><><><><><><

    TOTAL-FORCE (eV/Angstrom)

 ><><><><><><><><><><><><><><><><><><><><><><><><><><><><><><><><><><><

 atom    x              y              z              
 Si1     -0.54583416         +0.32883457         -0.64094252         
 Si2     +0.098610682        -2.0447417          -0.33994099         
 Si3     +0.10575249         -2.87829            -0.26591524         
 Si4     +0.60907527         -0.28790051         +0.36644731         
 Si5     -0.24028503         +3.4920712          +0.83824781         
 Si6     -0.047734785        +2.3941474          +0.2741575          
 Si7     -0.15046736         +0.26718933         -0.81404752         
 Si8     +0.72720044         -2.8834588          -0.40839469         
 Si9     -0.37599079         -3.2736623          -0.67038296         
 Si10    +0.93994269         -0.73913525         +0.94760587         
 Si11    +0.22267283         +3.8675954          +2.0597389          
 Si12    -0.1472004          +3.5952797          +2.7143897          
 Si13    -0.1379215          -0.80135991         -1.2609459          
 Si14    -0.23604174         -0.38636218         -0.87652606         
 Si15    +0.40578449         -3.0129897          +0.48348681         
 Si16    -0.12980208         +0.39159702         +0.18820729         
 Si17    +0.36312206         +0.5449563          -0.28127327         
 Si18    +0.36387473         +3.7480464          +0.70698316         
 Si19    +0.15875815         -0.26145378         -0.64461841         
 Si20    +0.17705727         -0.47947525         -0.26400475         
 Si21    +0.12053648         -3.1815721          +0.189062           
 Si22    +0.43938337         +0.061687337        +1.3790082          
 Si23    -0.022523793        +0.27607437         +0.40400977         
 Si24    -0.031163332        +2.7695701          +1.8834003          
 Si25    +0.39529829         +0.56146686         -0.29762053         
 Si26    +0.44221147         +1.003836           -0.5038033          
 Si27    +0.43046545         -0.35322342         -0.34639761         
 Si28    -0.24498356         -0.62225959         +0.30453587         
 Si29    -0.5704956          -0.79459006         -0.090338105        
 Si30    -0.54075988         -0.046173867        +0.080689019        
 Si31    -0.063471479        +0.89818973         -0.21209496         
 Si32    -0.16837772         +0.55981268         -0.52333441         
 Si33    -0.30757543         -0.089110278        -0.51416091         
 Si34    +0.3179797          -0.22752805         +0.90537767         
 Si35    +0.38493496         -1.323277           +1.1921679          
 Si36    +0.075672952        +0.35809674         +0.75201546         
 C1      +0.19038119         +0.0039661401       -0.25675992         
 C2      +0.52498405         -1.6800879          -0.22492314         
 C3      -0.034059326        -3.7680859          -1.6427979          
 C4      -0.31465325         +0.31937301         +1.0639904          
 C5      -0.23306238         +2.3966059          -0.013886978        
 C6      +0.024266009        +2.922229           +0.93375361         
 C7      +0.58011367         +0.2311409          -0.087468619        
 C8      -0.043474506        -3.2640321          -0.39732188         
 C9      -0.39906779         -3.8591603          -1.4747493          
 C10     -0.2334642          +0.33984534         -0.25103939         
 C11     -0.47328872         +2.1824039          -1.3278409          
 C12     +0.020534836        +2.3853959          -0.75684965         
 C13     +0.42854102         +0.033386524        +0.086596378        
 C14     +0.27734245         -0.38664695         +0.67723422         
 C15     -0.11997662         -3.5213987          -1.4388216          
 C16     +0.27772164         -0.18431621         +0.481951           
 C17     +0.18259163         +0.62627598         +0.42587215         
 C18     +0.18615929         +2.5285673          +0.21706792         
 C19     +0.29464809         -0.0052489845       -0.055383309        
 C20     +0.12779862         -0.8098418          +0.53878821         
 C21     +0.12233247         -2.4177894          -1.0483184          
 C22     -0.29349268         +0.21796965         -0.009156742        
 C23     -0.50905099         +0.13523055         -0.31478856         
 C24     -0.93290615         +2.9751744          -1.6061308          
 C25     -0.50732736         +0.19253038         -0.016085274        
 C26     -0.4079178          +0.81384084         +0.67350497         
 C27     -0.39169441         -0.4207573          +0.28616201         
 C28     -0.061814951        -0.021123066        -0.21894969         
 C29     +0.43825758         -0.64455346         +0.059947698        
 C30     -0.30720954         +0.15971351         -0.043816992        
 C31     +0.25189602         +0.1070937          +0.44666282         
 C32     -0.14339316         +0.9744162          +0.4812671          
 C33     +0.038356966        +0.16074962         +0.29176114         
 C34     -0.417271           -0.2527463          -0.93343036         
 C35     -0.60779472         +0.1613303          -0.9603641          
 C36     -0.35271112         -0.063337775        -0.30046445         


 ><><><><><><><><><><><><><><><><><><><><><><><><><><><><><><><><><><><

 TOTAL-STRESS (KBAR)

 ><><><><><><><><><><><><><><><><><><><><><><><><><><><><><><><><><><><

 -60.500308             -31.021430             -31.008582             
 -31.021430             +106.730894            +7.147607              
 -31.008582             +7.147607              -86.844123             
 TOTAL-PRESSURE: -13.537846 KBAR


 ------------------------------------------------------------------------------------------------
 Energy              Potential           Kinetic             Temperature         Pressure (KBAR)     
 -347.23088          -347.33334          +0.10246016         +303.79644          -9.6905722          
 ------------------------------------------------------------------------------------------------

output Pressure for check!
Virtual Pressure is -9.6905722 Kbar 
Virial Term is -13.537846 Kbar 
Kenetic Term is +3.8472735 Kbar 


 ><><><><><><><><><><><><><><><><><><><><><><><><><><><><><><><><><><><

 MD STRESS (KBAR)

 ><><><><><><><><><><><><><><><><><><><><><><><><><><><><><><><><><><><

-56.767031     -31.038337     -31.369883     
-31.038337     +110.71637     +6.6495258     
-31.369883     +6.6495258     -83.021059     




 --------------------------------------------
 !FINAL_ETOT_IS -9451.425088496742 eV
 --------------------------------------------






  |CLASS_NAME---------|NAME---------------|TIME(Sec)-----|CALLS----|AVG------|PER%-------
                       total               +14398         27        +5.3e+02  +1e+02    %
   Driver              driver_line         +14398         1         +1.4e+04  +1e+02    %
   PW_Basis            setup_struc_factor  +1.2234        11        +0.11     +0.0085   %
   ORB_control         read_orb_first      +0.18032       1         +0.18     +0.0013   %
   LCAO_Orbitals       Read_Orbitals       +0.18032       1         +0.18     +0.0013   %
   NOrbital_Lm         extra_uniform       +0.10353       16        +0.0065   +0.00072  %
   ORB_control         set_orb_tables      +6.9918        1         +7        +0.049    %
   ORB_gen_tables      gen_tables          +6.9918        1         +7        +0.049    %
   ORB_table_phi       init_Table          +5.4589        1         +5.5      +0.038    %
   ORB_table_phi       cal_ST_Phi12_R      +5.4301        558       +0.0097   +0.038    %
   ORB_table_beta      init_Table_Beta     +1.3388        1         +1.3      +0.0093   %
   ORB_table_beta      VNL_PhiBeta_R       +1.3326        168       +0.0079   +0.0093   %
   ppcell_vl           init_vloc           +0.26162       1         +0.26     +0.0018   %
   Run_MD              md_line             +14390         1         +1.4e+04  +1e+02    %
   Langevin            setup               +1932.8        1         +1.9e+03  +13       %
   MD_func             force_stress        +14390         11        +1.3e+03  +1e+02    %
   ESolver_KS_LCAO     Run                 +13339         11        +1.2e+03  +93       %
   ESolver_KS_LCAO     beforescf           +25.745        11        +2.3      +0.18     %
   ESolver_KS_LCAO     beforesolver        +9.3334        11        +0.85     +0.065    %
   ESolver_KS_LCAO     set_matrix_grid     +5.9059        11        +0.54     +0.041    %
   Grid_Technique      init                +3.2594        11        +0.3      +0.023    %
   Grid_BigCell        grid_expansion_index+0.91523       22        +0.042    +0.0064   %
   Record_adj          for_2d              +2.2959        11        +0.21     +0.016    %
   Grid_Driver         Find_atom           +17.358        709848    +2.4e-05  +0.12     %
   Charge              atomic_rho          +14.201        21        +0.68     +0.099    %
   PW_Basis            recip2real          +2.6989        775       +0.0035   +0.019    %
   PW_Basis            gathers_scatterp    +1.3365        775       +0.0017   +0.0093   %
   Potential           init_pot            +0.98694       11        +0.09     +0.0069   %
   Potential           update_from_charge  +11.811        142       +0.083    +0.082    %
   Potential           cal_v_eff           +11.759        142       +0.083    +0.082    %
   H_Hartree_pw        v_hartree           +1.303         142       +0.0092   +0.009    %
   PW_Basis            real2recip          +3.7609        1180      +0.0032   +0.026    %
   PW_Basis            gatherp_scatters    +1.5333        1180      +0.0013   +0.011    %
   PotXC               cal_v_eff           +10.352        142       +0.073    +0.072    %
   XC_Functional       v_xc                +10.29         142       +0.072    +0.071    %
   HSolverLCAO         solve               +13289         131       +1e+02    +92       %
   HamiltLCAO          updateHk            +4710.5        4716      +1        +33       %
   OperatorLCAO        init                +4018          9432      +0.43     +28       %
   Veff                contributeHk        +4015.3        4716      +0.85     +28       %
   Gint_interface      cal_gint            +6472.6        273       +24       +45       %
   Gint_interface      cal_gint_vlocal     +3131.2        131       +24       +22       %
   Gint_k              folding_vl_k        +884.11        4716      +0.19     +6.1      %
   Gint_k              Distri              +621.83        4716      +0.13     +4.3      %
   Overlap             contributeHR        +4.5924        11        +0.42     +0.032    %
   LCAO_gen_fixedH     calculate_S_no      +4.5924        11        +0.42     +0.032    %
   Ekinetic<OperatorLCAO>contributeHR        +4.6732        11        +0.42     +0.032    %
   Nonlocal<OperatorLCAO>contributeHR        +48.087        11        +4.4      +0.33     %
   LCAO_gen_fixedH     build_Nonlocal_mu_new+152.16        22        +6.9      +1.1      %
   ORB_gen_tables      snap_psibeta_half   +3.3734        1232142   +2.7e-06  +0.023    %
   OperatorLCAO        folding_fixed       +635.14        4716      +0.13     +4.4      %
   LCAO_nnr            folding_fixedH      +627.35        4716      +0.13     +4.4      %
   HSolverLCAO         hamiltSolvePsiK     +2021.1        4716      +0.43     +14       %
   DiagoElpa           elpa_solve          +2006.4        4716      +0.43     +14       %
   ElecStateLCAO       psiToRho            +6557.5        131       +50       +46       %
   elecstate           cal_dm              +259.77        142       +1.8      +1.8      %
   psiMulPsiMpi        pdgemm              +253.75        5112      +0.05     +1.8      %
    Local_Orbital_wfc  wfc_2d_to_grid      +33.402        4716      +0.0071   +0.23     %
   LCAO_Charge         cal_dk_k            +3497          131       +27       +24       %
   Record_adj          for_grid            +0.69155       131       +0.0053   +0.0048   %
   Gint_interface      cal_gint_rho        +2788.7        131       +21       +19       %
   Charge              mix_rho             +1.7868        120       +0.015    +0.012    %
   Force_Stress_LCAO   getForceStress      +1051.1        11        +96       +7.3      %
   Forces              cal_force_loc       +0.94148       11        +0.086    +0.0065   %
   Forces              cal_force_ew        +0.91881       11        +0.084    +0.0064   %
   Forces              cal_force_scc       +7.9253        11        +0.72     +0.055    %
   Stress_Func         stress_loc          +6.0996        11        +0.55     +0.042    %
   Stress_Func         stress_ewa          +0.41486       11        +0.038    +0.0029   %
   Stress_Func         stress_gga          +0.48045       11        +0.044    +0.0033   %
   Force_LCAO_k        ftable_k            +1034.3        11        +94       +7.2      %
   Force_LCAO_k        allocate_k          +134.59        11        +12       +0.93     %
   Force_LCAO_k        cal_foverlap_k      +35.463        11        +3.2      +0.25     %
   Force_LCAO_k        cal_edm_2d          +34.492        11        +3.1      +0.24     %
   Local_Orbital_Chargecal_dm_R            +11.984        22        +0.54     +0.083    %
   Force_LCAO_k        cal_ftvnl_dphi_k    +0.30627       11        +0.028    +0.0021   %
   Force_LCAO_k        cal_fvl_dphi_k      +552.76        11        +50       +3.8      %
   Gint_interface      cal_gint_force      +552.76        11        +50       +3.8      %
   Force_LCAO_k        cal_fvnl_dbeta_k_new+276.79        11        +25       +1.9      %
 ----------------------------------------------------------------------------------------

 CLASS_NAME---------|NAME---------------|MEMORY(MB)--------
                                         +2.809e+04
 ORB_table_phi       Jl(x)               +138.2         
 allocate_pvpR       pvpR_reduced        +88.68         
 LocalOrbital_Charge Density_Matrix      +88.68         
 stress_lo           dSR                 +73.62         
 force_lo            dS                  +36.81         
 force_lo            dTVNL               +36.81         
 Force_LCAO_k        dm2d                +12.27         
 ORB_table_phi       Table_SR&TR         +10.58         
 Grid_Meshcell       index2normal        +8.435         
 Grid_Meshcell       index2ucell         +8.435         
 Charge_Mixing       Rrho                +7.031         
 Charge_Mixing       dRrho               +6.152         
 Charge_Mixing       drho                +6.152         
 LocalOrbital_Coef   wfc_k_grid          +4.181         
 init_meshball       meshball_pos        +3.559         
 atoms_on_grid       which_atom          +2.671         
 atoms_on_grid       which_bigcell       +2.671         
 atoms_on_grid       which_unitcell      +2.671         
 ORB_table_beta      Table_NR            +2.045         
 PW_Basis            struc_fac           +1.346         
 ----------------------------------------------------------

 Start  Time  : Mon May 22 14:16:24 2023
 Finish Time  : Mon May 22 18:16:23 2023
 Total  Time  : 3 h 59 mins 59 secs 
