                                                                                     
                             WELCOME TO ABACUS v3.0                                  
                                                                                     
               'Atomic-orbital Based Ab-initio Computation at UStc'                  
                                                                                     
                     Website: http://abacus.ustc.edu.cn/                             
                                                                                     
    Version: Parallel, in development
    Processor Number is 16
    Start Time is Mon May 22 14:16:29 2023
                                                                                     
 ------------------------------------------------------------------------------------

 READING GENERAL INFORMATION
                           global_out_dir = OUT.ABACUS/
                           global_in_card = INPUT
                               pseudo_dir = 
                              orbital_dir = 
                                    DRANK = 1
                                    DSIZE = 16
                                   DCOLOR = 1
                                    GRANK = 1
                                    GSIZE = 1
 The esolver type has been set to : ksdft_lcao




 >>>>>>>>>>>>>>>>>>>>>>>>>>>>>>>>>>>>>>>>>>>>>>>>>>>>>>>>>>>>>>>>>>>>>>
 |                                                                    |
 | Reading atom information in unitcell:                              |
 | From the input file and the structure file we know the number of   |
 | different elments in this unitcell, then we list the detail        |
 | information for each element, especially the zeta and polar atomic |
 | orbital number for each element. The total atom number is counted. |
 | We calculate the nearest atom distance for each atom and show the  |
 | Cartesian and Direct coordinates for each atom. We list the file   |
 | address for atomic orbitals. The volume and the lattice vectors    |
 | in real and reciprocal space is also shown.                        |
 |                                                                    |
 <<<<<<<<<<<<<<<<<<<<<<<<<<<<<<<<<<<<<<<<<<<<<<<<<<<<<<<<<<<<<<<<<<<<<<




 READING UNITCELL INFORMATION
                                    ntype = 2
                 atom label for species 1 = Si
                 atom label for species 2 = C
                  lattice constant (Bohr) = 1.88973
              lattice constant (Angstrom) = 1

 READING ATOM TYPE 1
                               atom label = Si
                      L=0, number of zeta = 3
                      L=1, number of zeta = 3
                      L=2, number of zeta = 2
             number of atom for this type = 36
                      start magnetization = FALSE
                      start magnetization = FALSE
                      start magnetization = FALSE
                      start magnetization = FALSE
                      start magnetization = FALSE
                      start magnetization = FALSE
                      start magnetization = FALSE
                      start magnetization = FALSE
                      start magnetization = FALSE
                      start magnetization = FALSE
                      start magnetization = FALSE
                      start magnetization = FALSE
                      start magnetization = FALSE
                      start magnetization = FALSE
                      start magnetization = FALSE
                      start magnetization = FALSE
                      start magnetization = FALSE
                      start magnetization = FALSE
                      start magnetization = FALSE
                      start magnetization = FALSE
                      start magnetization = FALSE
                      start magnetization = FALSE
                      start magnetization = FALSE
                      start magnetization = FALSE
                      start magnetization = FALSE
                      start magnetization = FALSE
                      start magnetization = FALSE
                      start magnetization = FALSE
                      start magnetization = FALSE
                      start magnetization = FALSE
                      start magnetization = FALSE
                      start magnetization = FALSE
                      start magnetization = FALSE
                      start magnetization = FALSE
                      start magnetization = FALSE
                      start magnetization = FALSE

 READING ATOM TYPE 2
                               atom label = C
                      L=0, number of zeta = 3
                      L=1, number of zeta = 3
                      L=2, number of zeta = 2
             number of atom for this type = 36
                      start magnetization = FALSE
                      start magnetization = FALSE
                      start magnetization = FALSE
                      start magnetization = FALSE
                      start magnetization = FALSE
                      start magnetization = FALSE
                      start magnetization = FALSE
                      start magnetization = FALSE
                      start magnetization = FALSE
                      start magnetization = FALSE
                      start magnetization = FALSE
                      start magnetization = FALSE
                      start magnetization = FALSE
                      start magnetization = FALSE
                      start magnetization = FALSE
                      start magnetization = FALSE
                      start magnetization = FALSE
                      start magnetization = FALSE
                      start magnetization = FALSE
                      start magnetization = FALSE
                      start magnetization = FALSE
                      start magnetization = FALSE
                      start magnetization = FALSE
                      start magnetization = FALSE
                      start magnetization = FALSE
                      start magnetization = FALSE
                      start magnetization = FALSE
                      start magnetization = FALSE
                      start magnetization = FALSE
                      start magnetization = FALSE
                      start magnetization = FALSE
                      start magnetization = FALSE
                      start magnetization = FALSE
                      start magnetization = FALSE
                      start magnetization = FALSE
                      start magnetization = FALSE

                        TOTAL ATOM NUMBER = 72

 CARTESIAN COORDINATES ( UNIT = 1.88973 Bohr ).
         atom                   x                   y                   z                 mag                  vx                  vy                  vz
     tauc_Si1    0.00191092612288       1.82831035105       2.55432567547                   0                   0                   0                   0
     tauc_Si2       3.13110703246       7.23585766183       2.51640777554                   0                   0                   0                   0
     tauc_Si3      -3.14389190937       7.25009975499       2.50259270308                   0                   0                   0                   0
     tauc_Si4        4.6854712883       6.36357947581       5.11058569291                   0                   0                   0                   0
     tauc_Si5       1.55878511608      0.936790315027       5.13229926826                   0                   0                   0                   0
     tauc_Si6       7.83153230523      0.946552383657       5.15802004964                   0                   0                   0                   0
     tauc_Si7     -0.021796891495       1.86830692428       7.69481262521                   0                   0                   0                   0
     tauc_Si8       3.10745885693       7.27276294928       7.68072861721                   0                   0                   0                   0
     tauc_Si9      -3.13528803987       7.28586000162       7.64901026176                   0                   0                   0                   0
    tauc_Si10       4.65739678368       6.39030902794       10.2542742161                   0                   0                   0                   0
    tauc_Si11       1.52999015916          0.95959594       10.2803915588                   0                   0                   0                   0
    tauc_Si12         7.802146862      0.957904934458       10.2878276378                   0                   0                   0                   0
    tauc_Si13      -1.56532653263       4.53919740153       2.54005266562                   0                   0                   0                   0
    tauc_Si14        1.5684231911       4.54644227712       2.53570012503                   0                   0                   0                   0
    tauc_Si15   -0.00692454035441       7.24345575272       2.51761367033                   0                   0                   0                   0
    tauc_Si16       6.24694617554       3.65066524094       5.12203340889                   0                   0                   0                   0
    tauc_Si17       3.09643632644       3.64498792855        5.1335534461                   0                   0                   0                   0
    tauc_Si18       4.67071582525      0.940086718786       5.13647647337                   0                   0                   0                   0
    tauc_Si19      -1.58051620703        4.5554175968       7.65455272001                   0                   0                   0                   0
    tauc_Si20       1.52610481574       4.57662984437       7.67185936909                   0                   0                   0                   0
    tauc_Si21    -0.0129863256873       7.28189587501       7.66038810054                   0                   0                   0                   0
    tauc_Si22       6.23303324626       3.69189048961       10.2583049051                   0                   0                   0                   0
    tauc_Si23        3.1031085613       3.67513135132       10.2669570967                   0                   0                   0                   0
    tauc_Si24       4.66776398493      0.972953061077       10.2872046365                   0                   0                   0                   0
    tauc_Si25       3.11493756069       1.82481670719       2.56274762956                   0                   0                   0                   0
    tauc_Si26       6.25338006623       1.82538442072       2.57467901584                   0                   0                   0                   0
    tauc_Si27       4.69553157783        4.5485225387       2.54750273819                   0                   0                   0                   0
    tauc_Si28       1.54082840574       6.34472940247       5.10033506386                   0                   0                   0                   0
    tauc_Si29      -1.57406434679       6.34985589261        5.1034789433                   0                   0                   0                   0
    tauc_Si30    -0.0144074413218       3.64443139543       5.10886536202                   0                   0                   0                   0
    tauc_Si31       3.11140541266       1.86556133637       7.70298312472                   0                   0                   0                   0
    tauc_Si32       6.25203301745        1.8765157087       7.71646978979                   0                   0                   0                   0
    tauc_Si33       4.68514805929       4.57381228522        7.7006896593                   0                   0                   0                   0
    tauc_Si34        1.5357843478       6.36723460624       10.2533949204                   0                   0                   0                   0
    tauc_Si35      -1.59534850886       6.38174466743       10.2185953335                   0                   0                   0                   0
    tauc_Si36    -0.0466075872023       3.66254559385       10.2499636749                   0                   0                   0                   0
      tauc_C1    -0.0149699832391       1.83500646659        4.4784685976                   0                   0                   0                   0
      tauc_C2       3.11582687257       7.26048676903       4.45501486771                   0                   0                   0                   0
      tauc_C3       -3.1523753364       7.24689382985       4.44860419362                   0                   0                   0                   0
      tauc_C4       4.68148847621       6.36842935226         7.042959368                   0                   0                   0                   0
      tauc_C5       1.54143358114      0.937593461593       7.06830921339                   0                   0                   0                   0
      tauc_C6       7.80323348552       0.95175975153       7.07633002658                   0                   0                   0                   0
      tauc_C7    -0.0417661950876       1.88216612274       9.61751071334                   0                   0                   0                   0
      tauc_C8       3.12165617622       7.29411715584         9.579758493                   0                   0                   0                   0
      tauc_C9      -3.17528913418       7.29858312537       9.59727861931                   0                   0                   0                   0
     tauc_C10       4.70361943567       6.35554429746        1.8955779567                   0                   0                   0                   0
     tauc_C11       1.55948384449      0.915549671011       1.93043725585                   0                   0                   0                   0
     tauc_C12       7.83495308808      0.916026663515       1.93106879678                   0                   0                   0                   0
     tauc_C13      -1.57862215432       4.54820687825       4.47152171248                   0                   0                   0                   0
     tauc_C14       1.55652563443       4.52553826648        4.4687408443                   0                   0                   0                   0
     tauc_C15    -0.0022380479868       7.24980804198       4.45644990949                   0                   0                   0                   0
     tauc_C16       6.24209155745       3.66340187668       7.06589560213                   0                   0                   0                   0
     tauc_C17       3.10872881056       3.65929937632       7.04824932812                   0                   0                   0                   0
     tauc_C18       4.66940991357      0.957763281902       7.08444493243                   0                   0                   0                   0
     tauc_C19      -1.60387263094       4.58818285189       9.59081842773                   0                   0                   0                   0
     tauc_C20       1.53657010344       4.58320891482       9.60905249645                   0                   0                   0                   0
     tauc_C21    -0.0208548529193       7.27339936056       9.60444409044                   0                   0                   0                   0
     tauc_C22       6.26072893204       3.63122802988       1.91728052191                   0                   0                   0                   0
     tauc_C23       3.12742263038        3.6455423124       1.91407208545                   0                   0                   0                   0
     tauc_C24        4.6947169973      0.921274523925       1.95947012227                   0                   0                   0                   0
     tauc_C25       3.11974513019       1.82940389433       4.49103833271                   0                   0                   0                   0
     tauc_C26       6.23670004711       1.82714840787       4.50522549592                   0                   0                   0                   0
     tauc_C27       4.67886494476       4.54851117793       4.49071851136                   0                   0                   0                   0
     tauc_C28       1.52888107165       6.36999842839       7.01202641832                   0                   0                   0                   0
     tauc_C29      -1.59231173174       6.37677177762       7.02223241364                   0                   0                   0                   0
     tauc_C30    -0.0198453687254       3.65242985886       7.04716987506                   0                   0                   0                   0
     tauc_C31       3.09489004708       1.86126318313       9.64140627881                   0                   0                   0                   0
     tauc_C32       6.24308909399        1.8664197138       9.63902345815                   0                   0                   0                   0
     tauc_C33       4.66296062029       4.58151627532       9.62681933503                   0                   0                   0                   0
     tauc_C34       1.58051202385       6.34437050128       1.90671480222                   0                   0                   0                   0
     tauc_C35      -1.56869619988       6.34770108391       1.87478127092                   0                   0                   0                   0
     tauc_C36    0.00434216623208       3.63576036138        1.9033952383                   0                   0                   0                   0


 READING ORBITAL FILE NAMES FOR LCAO
 orbital file: Si_gga_9au_100Ry_3s3p2d.orb
 orbital file: C_gga_9au_100Ry_3s3p2d.orb

                          Volume (Bohr^3) = 5358.5435211
                             Volume (A^3) = 794.053276178

 Lattice vectors: (Cartesian coordinate: in unit of a_0)
        +9.3697490349                  +0                  +0
       -4.69280940784      +8.15928915337                  +0
     -0.0489206669762     +0.128379868686      +10.3865156023
 Reciprocal vectors: (Cartesian coordinate: in unit of 2 pi/a_0)
      +0.106726444462    +0.0613836393372  -0.000256033381387
                   +0     +0.122559696219   -0.00151486776791
                   +0                  -0    +0.0962786788457




 >>>>>>>>>>>>>>>>>>>>>>>>>>>>>>>>>>>>>>>>>>>>>>>>>>>>>>>>>>>>>>>>>>>>>>
 |                                                                    |
 | Reading pseudopotentials files:                                    |
 | The pseudopotential file is in UPF format. The 'NC' indicates that |
 | the type of pseudopotential is 'norm conserving'. Functional of    |
 | exchange and correlation is decided by 4 given parameters in UPF   |
 | file.  We also read in the 'core correction' if there exists.      |
 | Also we can read the valence electrons number and the maximal      |
 | angular momentum used in this pseudopotential. We also read in the |
 | trail wave function, trail atomic density and local-pseudopotential|
 | on logrithmic grid. The non-local pseudopotential projector is also|
 | read in if there is any.                                           |
 |                                                                    |
 <<<<<<<<<<<<<<<<<<<<<<<<<<<<<<<<<<<<<<<<<<<<<<<<<<<<<<<<<<<<<<<<<<<<<<




                PAO radial cut off (Bohr) = 15

 Read in pseudopotential file is Si_ONCV_PBE-1.0.upf
                     pseudopotential type = NC
          exchange-correlation functional = PBE
                 nonlocal core correction = 0
                        valence electrons = 4
                                     lmax = 1
                           number of zeta = 0
                     number of projectors = 4
                           L of projector = 0
                           L of projector = 0
                           L of projector = 1
                           L of projector = 1
                PAO radial cut off (Bohr) = 15

 Read in pseudopotential file is C_ONCV_PBE-1.0.upf
                     pseudopotential type = NC
          exchange-correlation functional = PBE
                 nonlocal core correction = 0
                        valence electrons = 4
                                     lmax = 1
                           number of zeta = 0
                     number of projectors = 4
                           L of projector = 0
                           L of projector = 0
                           L of projector = 1
                           L of projector = 1
     initial pseudo atomic orbital number = 0
                                   NLOCAL = 1584




 >>>>>>>>>>>>>>>>>>>>>>>>>>>>>>>>>>>>>>>>>>>>>>>>>>>>>>>>>>>>>>>>>>>>>>
 |                                                                    |
 | Setup plane waves of charge/potential:                             |
 | Use the energy cutoff and the lattice vectors to generate the      |
 | dimensions of FFT grid. The number of FFT grid on each processor   |
 | is 'nrxx'. The number of plane wave basis in reciprocal space is   |
 | different for charege/potential and wave functions. We also set    |
 | the 'sticks' for the parallel of FFT. The number of plane waves    |
 | is 'npw' in each processor.                                        |
 <<<<<<<<<<<<<<<<<<<<<<<<<<<<<<<<<<<<<<<<<<<<<<<<<<<<<<<<<<<<<<<<<<<<<<





 SETUP THE PLANE WAVE BASIS
 energy cutoff for charge/potential (unit:Ry) = 400
          [fft grid for charge/potential] = 120, 120, 128
                      [fft grid division] = 2, 2, 2
      [big fft grid for charge/potential] = 60, 60, 64
                                     nbxx = 14400
                                     nrxx = 115200

 SETUP PLANE WAVES FOR CHARGE/POTENTIAL
                    number of plane waves = 724031
                         number of sticks = 8695

 PARALLEL PW FOR CHARGE/POTENTIAL
     PROC   COLUMNS(POT)             PW
        1            544          45253
        2            544          45253
        3            544          45252
        4            544          45252
        5            543          45251
        6            543          45251
        7            543          45251
        8            543          45251
        9            543          45251
       10            543          45251
       11            543          45251
       12            543          45251
       13            544          45254
       14            544          45254
       15            544          45254
       16            543          45251
 --------------- sum -------------------
       16           8695         724031
                            number of |g| = 43588
                                  max |g| = 36.1819235187
                                  min |g| = 0.0451570543388

 SETUP THE ELECTRONS NUMBER
            electron number of element Si = 4
      total electron number of element Si = 144
             electron number of element C = 4
       total electron number of element C = 144
            AUTOSET number of electrons:  = 288
 DONE : SETUP UNITCELL Time : 0.0868740169467 (SEC)





 >>>>>>>>>>>>>>>>>>>>>>>>>>>>>>>>>>>>>>>>>>>>>>>>>>>>>>>>>>>>>>>>>>>>>>
 |                                                                    |
 | Setup K-points                                                     |
 | We setup the k-points according to input parameters.               |
 | The reduced k-points are set according to symmetry operations.     |
 | We treat the spin as another set of k-points.                      |
 |                                                                    |
 <<<<<<<<<<<<<<<<<<<<<<<<<<<<<<<<<<<<<<<<<<<<<<<<<<<<<<<<<<<<<<<<<<<<<<





 SETUP K-POINTS
                                    nspin = 1
                   Input type of k points = Monkhorst-Pack(Gamma)
                                   nkstot = 64
                               nkstot_ibz = 36
      IBZ             DirectX             DirectY             DirectZ              Weight    ibz2bz
        1                   0                   0                   0            0.015625         0
        2                0.75                   0                   0             0.03125         1
        3                 0.5                   0                   0            0.015625         2
        4                   0                0.75                   0             0.03125         4
        5                0.75                0.75                   0             0.03125         5
        6                 0.5                0.75                   0             0.03125         6
        7                0.25                0.75                   0             0.03125         7
        8                   0                 0.5                   0            0.015625         8
        9                0.75                 0.5                   0             0.03125         9
       10                 0.5                 0.5                   0            0.015625        10
       11                   0                   0                0.75             0.03125        16
       12                0.75                   0                0.75             0.03125        17
       13                 0.5                   0                0.75             0.03125        18
       14                0.25                   0                0.75             0.03125        19
       15                   0                0.75                0.75             0.03125        20
       16                0.75                0.75                0.75             0.03125        21
       17                 0.5                0.75                0.75             0.03125        22
       18                0.25                0.75                0.75             0.03125        23
       19                   0                 0.5                0.75             0.03125        24
       20                0.75                 0.5                0.75             0.03125        25
       21                 0.5                 0.5                0.75             0.03125        26
       22                0.25                 0.5                0.75             0.03125        27
       23                   0                0.25                0.75             0.03125        28
       24                0.75                0.25                0.75             0.03125        29
       25                 0.5                0.25                0.75             0.03125        30
       26                0.25                0.25                0.75             0.03125        31
       27                   0                   0                 0.5            0.015625        32
       28                0.75                   0                 0.5             0.03125        33
       29                 0.5                   0                 0.5            0.015625        34
       30                   0                0.75                 0.5             0.03125        36
       31                0.75                0.75                 0.5             0.03125        37
       32                 0.5                0.75                 0.5             0.03125        38
       33                0.25                0.75                 0.5             0.03125        39
       34                   0                 0.5                 0.5            0.015625        40
       35                0.75                 0.5                 0.5             0.03125        41
       36                 0.5                 0.5                 0.5            0.015625        42
                               nkstot now = 36

  KPOINTS            DIRECT_X            DIRECT_Y            DIRECT_Z              WEIGHT
        1                   0                   0                   0            0.015625
        2                0.75                   0                   0             0.03125
        3                 0.5                   0                   0            0.015625
        4                   0                0.75                   0             0.03125
        5                0.75                0.75                   0             0.03125
        6                 0.5                0.75                   0             0.03125
        7                0.25                0.75                   0             0.03125
        8                   0                 0.5                   0            0.015625
        9                0.75                 0.5                   0             0.03125
       10                 0.5                 0.5                   0            0.015625
       11                   0                   0                0.75             0.03125
       12                0.75                   0                0.75             0.03125
       13                 0.5                   0                0.75             0.03125
       14                0.25                   0                0.75             0.03125
       15                   0                0.75                0.75             0.03125
       16                0.75                0.75                0.75             0.03125
       17                 0.5                0.75                0.75             0.03125
       18                0.25                0.75                0.75             0.03125
       19                   0                 0.5                0.75             0.03125
       20                0.75                 0.5                0.75             0.03125
       21                 0.5                 0.5                0.75             0.03125
       22                0.25                 0.5                0.75             0.03125
       23                   0                0.25                0.75             0.03125
       24                0.75                0.25                0.75             0.03125
       25                 0.5                0.25                0.75             0.03125
       26                0.25                0.25                0.75             0.03125
       27                   0                   0                 0.5            0.015625
       28                0.75                   0                 0.5             0.03125
       29                 0.5                   0                 0.5            0.015625
       30                   0                0.75                 0.5             0.03125
       31                0.75                0.75                 0.5             0.03125
       32                 0.5                0.75                 0.5             0.03125
       33                0.25                0.75                 0.5             0.03125
       34                   0                 0.5                 0.5            0.015625
       35                0.75                 0.5                 0.5             0.03125
       36                 0.5                 0.5                 0.5            0.015625

           k-point number in this process = 36
       minimum distributed K point number = 36

  KPOINTS         CARTESIAN_X         CARTESIAN_Y         CARTESIAN_Z              WEIGHT
        1                   0                   0                   0             0.03125
        2     0.0800448333468     0.0460377295029   -0.00019202503604              0.0625
        3     0.0533632222312     0.0306918196686  -0.000128016690693             0.03125
        4                   0     0.0919197721642   -0.00113615082593              0.0625
        5     0.0800448333468      0.137957501667   -0.00132817586197              0.0625
        6     0.0533632222312      0.122611591833   -0.00126416751662              0.0625
        7     0.0266816111156      0.107265681999   -0.00120015917128              0.0625
        8                   0     0.0612798481095  -0.000757433883954             0.03125
        9     0.0800448333468      0.107317577612  -0.000949458919994              0.0625
       10     0.0533632222312     0.0919716677781  -0.000885450574648             0.03125
       11                   0                   0     0.0722090091343              0.0625
       12     0.0800448333468     0.0460377295029     0.0720169840982              0.0625
       13     0.0533632222312     0.0306918196686     0.0720809924436              0.0625
       14     0.0266816111156     0.0153459098343     0.0721450007889              0.0625
       15                   0     0.0919197721642     0.0710728583083              0.0625
       16     0.0800448333468      0.137957501667     0.0708808332723              0.0625
       17     0.0533632222312      0.122611591833     0.0709448416176              0.0625
       18     0.0266816111156      0.107265681999      0.071008849963              0.0625
       19                   0     0.0612798481095     0.0714515752503              0.0625
       20     0.0800448333468      0.107317577612     0.0712595502143              0.0625
       21     0.0533632222312     0.0919716677781     0.0713235585596              0.0625
       22     0.0266816111156     0.0766257579438      0.071387566905              0.0625
       23                   0     0.0306399240547     0.0718302921923              0.0625
       24     0.0800448333468     0.0766776535576     0.0716382671562              0.0625
       25     0.0533632222312     0.0613317437233     0.0717022755016              0.0625
       26     0.0266816111156      0.045985833889     0.0717662838469              0.0625
       27                   0                   0     0.0481393394228             0.03125
       28     0.0800448333468     0.0460377295029     0.0479473143868              0.0625
       29     0.0533632222312     0.0306918196686     0.0480113227321             0.03125
       30                   0     0.0919197721642     0.0470031885969              0.0625
       31     0.0800448333468      0.137957501667     0.0468111635609              0.0625
       32     0.0533632222312      0.122611591833     0.0468751719062              0.0625
       33     0.0266816111156      0.107265681999     0.0469391802516              0.0625
       34                   0     0.0612798481095     0.0473819055389             0.03125
       35     0.0800448333468      0.107317577612     0.0471898805028              0.0625
       36     0.0533632222312     0.0919716677781     0.0472538888482             0.03125

  KPOINTS            DIRECT_X            DIRECT_Y            DIRECT_Z              WEIGHT
        1                   0                   0                   0             0.03125
        2                0.75                   0                   0              0.0625
        3                 0.5                   0                   0             0.03125
        4                   0                0.75                   0              0.0625
        5                0.75                0.75                   0              0.0625
        6                 0.5                0.75                   0              0.0625
        7                0.25                0.75                   0              0.0625
        8                   0                 0.5                   0             0.03125
        9                0.75                 0.5                   0              0.0625
       10                 0.5                 0.5                   0             0.03125
       11                   0                   0                0.75              0.0625
       12                0.75                   0                0.75              0.0625
       13                 0.5                   0                0.75              0.0625
       14                0.25                   0                0.75              0.0625
       15                   0                0.75                0.75              0.0625
       16                0.75                0.75                0.75              0.0625
       17                 0.5                0.75                0.75              0.0625
       18                0.25                0.75                0.75              0.0625
       19                   0                 0.5                0.75              0.0625
       20                0.75                 0.5                0.75              0.0625
       21                 0.5                 0.5                0.75              0.0625
       22                0.25                 0.5                0.75              0.0625
       23                   0                0.25                0.75              0.0625
       24                0.75                0.25                0.75              0.0625
       25                 0.5                0.25                0.75              0.0625
       26                0.25                0.25                0.75              0.0625
       27                   0                   0                 0.5             0.03125
       28                0.75                   0                 0.5              0.0625
       29                 0.5                   0                 0.5             0.03125
       30                   0                0.75                 0.5              0.0625
       31                0.75                0.75                 0.5              0.0625
       32                 0.5                0.75                 0.5              0.0625
       33                0.25                0.75                 0.5              0.0625
       34                   0                 0.5                 0.5             0.03125
       35                0.75                 0.5                 0.5              0.0625
       36                 0.5                 0.5                 0.5             0.03125
 DONE : INIT K-POINTS Time : 0.0941758298591 (SEC)

                           occupied bands = 144
                                   NLOCAL = 1584
                                   NBANDS = 173
                                   NBANDS = 173




 >>>>>>>>>>>>>>>>>>>>>>>>>>>>>>>>>>>>>>>>>>>>>>>>>>>>>>>>>>>>>>>>>>>>>>
 |                                                                    |
 | Setup numerical orbitals:                                          |
 | This part setup: numerical atomic orbitals, non-local projectors   |
 | and neutral potential (1D). The atomic orbitals information        |
 | including the radius, angular momentum and zeta number.            |
 | The neutral potential is the sum of local part of pseudopotential  |
 | and potential given by atomic charge, they will cancel out beyond  |
 | a certain radius cutoff, because the Z/r character.                |
 |                                                                    |
 <<<<<<<<<<<<<<<<<<<<<<<<<<<<<<<<<<<<<<<<<<<<<<<<<<<<<<<<<<<<<<<<<<<<<<





 SETUP ONE DIMENSIONAL ORBITALS/POTENTIAL
                        delta k  (1/Bohr) = 0.01
                        delta r    (Bohr) = 0.01
                        dr_uniform (Bohr) = 0.001
                        rmax       (Bohr) = 30
                                    kmesh = 1005
      ORBITAL  L  N      nr      dr    RCUT  CHECK_UNIT    NEW_UNIT
            1  0  0     901    0.01       9           1           1
            2  0  1     901    0.01       9           1           1
            3  0  2     901    0.01       9           1           1
            4  1  0     901    0.01       9           1           1
            5  1  1     901    0.01       9           1           1
            6  1  2     901    0.01       9           1           1
            7  2  0     901    0.01       9           1           1
            8  2  1     901    0.01       9           1           1
      ORBITAL  L  N      nr      dr    RCUT  CHECK_UNIT    NEW_UNIT
            1  0  0     901    0.01       9           1           1
            2  0  1     901    0.01       9           1           1
            3  0  2     901    0.01       9           1           1
            4  1  0     901    0.01       9           1           1
            5  1  1     901    0.01       9           1           1
            6  1  2     901    0.01       9           1           1
            7  2  0     901    0.01       9           1           1
            8  2  1     901    0.01       9           1           1
 SET NONLOCAL PSEUDOPOTENTIAL PROJECTORS
 SET NONLOCAL PSEUDOPOTENTIAL PROJECTORS
 max number of nonlocal projetors among all species is 4

 SETUP THE TWO-CENTER INTEGRATION TABLES

 SETUP THE DIVISION OF H/S MATRIX
 divide the H&S matrix using 2D block algorithms.
                                     nb2d = 64
 parameter nb2d is too large: nb2d = 64
 reset nb2d to value 1, this set would make the program keep working but maybe get slower during diagonalization.
                  trace_loc_row dimension = 1584
                  trace_loc_col dimension = 1584
                                     nloc = 156816

 -------------------------------------------
 STEP OF MOLECULAR DYNAMICS : 0
 -------------------------------------------
              searching radius is (Bohr)) = 25.3
         searching radius unit is (Bohr)) = 1.89
1605866
                                 init_chg = atomic
 DONE : INIT SCF Time : 10.6832 (SEC)


 LCAO ALGORITHM --------------- ION=   1  ELEC=   1--------------------------------

 Density error is 0.268976475777

 LCAO ALGORITHM --------------- ION=   1  ELEC=   2--------------------------------

 Density error is 0.154873031423

 LCAO ALGORITHM --------------- ION=   1  ELEC=   3--------------------------------

 Density error is 0.0284416742773

 LCAO ALGORITHM --------------- ION=   1  ELEC=   4--------------------------------

 Density error is 0.0657055055297

 LCAO ALGORITHM --------------- ION=   1  ELEC=   5--------------------------------

 Density error is 0.0084218785339

 LCAO ALGORITHM --------------- ION=   1  ELEC=   6--------------------------------

 Density error is 0.00407956868664

 LCAO ALGORITHM --------------- ION=   1  ELEC=   7--------------------------------

 Density error is 0.00161870491389

 LCAO ALGORITHM --------------- ION=   1  ELEC=   8--------------------------------

 Density error is 0.00141329953143

 LCAO ALGORITHM --------------- ION=   1  ELEC=   9--------------------------------

 Density error is 0.00111522455789

 LCAO ALGORITHM --------------- ION=   1  ELEC=  10--------------------------------

 Density error is 0.000438495219798

 LCAO ALGORITHM --------------- ION=   1  ELEC=  11--------------------------------

 Density error is 0.000186467250568

 LCAO ALGORITHM --------------- ION=   1  ELEC=  12--------------------------------

 Density error is 7.79098902774e-05

 LCAO ALGORITHM --------------- ION=   1  ELEC=  13--------------------------------

 Density error is 2.38527883106e-05

 LCAO ALGORITHM --------------- ION=   1  ELEC=  14--------------------------------

 Density error is 7.60302840382e-06

 LCAO ALGORITHM --------------- ION=   1  ELEC=  15--------------------------------

 Density error is 5.86840555304e-06

 LCAO ALGORITHM --------------- ION=   1  ELEC=  16--------------------------------

 Density error is 2.67417081817e-06

 LCAO ALGORITHM --------------- ION=   1  ELEC=  17--------------------------------

 Density error is 1.55172835109e-06

 LCAO ALGORITHM --------------- ION=   1  ELEC=  18--------------------------------

 Density error is 5.78759586239e-07

 charge density convergence is achieved
 final etot is -9454.94095386 eV

 ><><><><><><><><><><><><><><><><><><><><><><><><><><><><><><><><><><><

    TOTAL-FORCE (eV/Angstrom)

 ><><><><><><><><><><><><><><><><><><><><><><><><><><><><><><><><><><><

     atom              x              y              z
      Si1        +0.068383461       +0.0029839927         -0.31833289
      Si2         +0.08977501         +0.60566932         +0.31715267
      Si3          +0.6047296         +0.26929847         +0.36125083
      Si4         -0.44409385         -0.13497644         -0.19816469
      Si5         -0.14483094         -0.46586251         -0.39107786
      Si6         -0.73795082         -0.68164169          -0.7479717
      Si7         +0.20584644         -0.44247353        +0.017419202
      Si8        +0.032707838         +0.21967924         -0.38105859
      Si9         -0.28430033         +0.10771938          +0.5397654
     Si10        +0.015728803         +0.23311768         +0.73598992
     Si11        -0.093320346         +0.13638918         +0.56905737
     Si12         -0.28487226        +0.020199708         +0.57094576
     Si13         +0.15286365         +0.13703712         -0.40808787
     Si14        -0.090190716         -0.23005995         -0.23970537
     Si15        +0.076194529         +0.24906111        +0.058072676
     Si16         -0.37562611         -0.23075635         -0.08718465
     Si17         +0.54953896        -0.059505426         -0.37672384
     Si18         +0.24964634         -0.50522232         -0.17827341
     Si19        +0.047886956         +0.49183339         +0.34577905
     Si20         +0.37557542          -0.1140456         +0.12002542
     Si21         -0.23849199         +0.23740089         +0.25213238
     Si22         -0.21813718         -0.11688474              +1.076
     Si23          -0.2209749          +0.2447384         +0.88564374
     Si24       -0.0077448541         -0.29760806         +0.65430951
     Si25         +0.21770286        +0.058113618         -0.34946916
     Si26         +0.16289551         -0.11460239         -0.37089069
     Si27        -0.019868108         -0.17845299          -0.1664124
     Si28         +0.37077159         +0.28027575         -0.40706326
     Si29        -0.083752562         +0.37924573          -0.4143544
     Si30        +0.040033026        -0.040827117         -0.14420172
     Si31         -0.17961305         -0.26860597        -0.011384903
     Si32         -0.32467804         -0.52420746         -0.22995666
     Si33         -0.31694786        -0.027456545         -0.28430237
     Si34         +0.13739011         +0.70162685         +0.73420816
     Si35         -0.10694508         +0.54886134          +1.1233511
     Si36         +0.21623847         +0.78163066         +0.99549575
       C1         +0.37699642         +0.13190273         +0.28665922
       C2        +0.018800825          +0.1660777         +0.55738512
       C3         +0.50946514         +0.53365568         +0.33300721
       C4         -0.22983538         +0.10327698        -0.024563569
       C5         +0.14191584         +0.27870008         -0.17743253
       C6        -0.070472421         -0.24372005        -0.079802559
       C7         +0.40903096         -0.35118236         +0.38297064
       C8         -0.56986675        +0.039373184          +1.1185243
       C9         +0.49940149         +0.14874621         +0.33748492
      C10         -0.47683671         -0.55139379          -1.1146338
      C11        +0.078284919         -0.21222092          -1.1095327
      C12         -0.37872983         -0.44467191          -1.0877182
      C13         +0.26131622         -0.06473447         +0.13750693
      C14         -0.22796146         +0.28842884         +0.13776048
      C15         -0.32986098         +0.29230418         +0.34701896
      C16         -0.18636528        -0.079650497         -0.25474685
      C17        -0.053756044         +0.19789021         +0.36217847
      C18         +0.22955897         -0.15807453         -0.28072433
      C19         +0.34485678         -0.21037501         +0.26835505
      C20         -0.10577657         -0.37891241         +0.23730288
      C21       -0.0039279499         +0.51994232         +0.35091101
      C22         -0.16722107          -0.2269677         -0.91152637
      C23         +0.13659062          -0.4305477         -0.85583449
      C24        -0.067854651         -0.36205306          -1.3883876
      C25         -0.18587508         +0.13206408         +0.12967535
      C26         +0.31935146         +0.19052747         +0.11376132
      C27        -0.087397995        -0.077822498        -0.044445213
      C28         +0.30926368         +0.10123962         +0.46391037
      C29         +0.38154621         -0.11670209         +0.21793395
      C30         +0.02707055          +0.1465465         -0.15758675
      C31         +0.10373425        +0.073834523         +0.15608998
      C32         -0.18887438        +0.074849468         +0.33424638
      C33       -0.0069805028          -0.1007275         +0.19926243
      C34         -0.29783352          -0.1842757          -1.1300954
      C35        +0.063270877         -0.27058707         -0.72508039
      C36        -0.016598197          -0.2264333          -0.7818167


 ><><><><><><><><><><><><><><><><><><><><><><><><><><><><><><><><><><><

 TOTAL-STRESS (KBAR)

 ><><><><><><><><><><><><><><><><><><><><><><><><><><><><><><><><><><><

              -46.472289              +3.681552              +6.591180
               +3.681552             -73.766864             -17.740063
               +6.591180             -17.740063            -105.951947
 TOTAL-PRESSURE: -75.397033 KBAR


 ------------------------------------------------------------------------------------------------
 Energy              Potential           Kinetic             Temperature         Pressure (KBAR)     
 -347.45917          -347.46255          +0.0033726584       +10                 -75.273583          
 ------------------------------------------------------------------------------------------------

output Pressure for check!
Virtual Pressure is -75.273583 Kbar 
Virial Term is -75.397033 Kbar 
Kenetic Term is +0.12345038 Kbar 


 ><><><><><><><><><><><><><><><><><><><><><><><><><><><><><><><><><><><

 MD STRESS (KBAR)

 ><><><><><><><><><><><><><><><><><><><><><><><><><><><><><><><><><><><

-46.358226     +3.6599829     +6.5921847     
+3.6599829     -73.649456     -17.759154     
+6.5921847     -17.759154     -105.81307     



 -------------------------------------------
 STEP OF MOLECULAR DYNAMICS : 1
 -------------------------------------------
 NEW-OLD atomic charge density approx. for the potential !
 searching radius is (Bohr))              = +25.29
 searching radius unit is (Bohr))         = +1.8897261
+1606130
 DONE : INIT SCF Time : +1971.31 (SEC)


 LCAO ALGORITHM --------------- ION=+2    ELEC=+1  --------------------------------

 Density error is +0.00039522269361

 LCAO ALGORITHM --------------- ION=+2    ELEC=+2  --------------------------------

 Density error is +0.000186393867482

 LCAO ALGORITHM --------------- ION=+2    ELEC=+3  --------------------------------

 Density error is +0.000193243080648

 LCAO ALGORITHM --------------- ION=+2    ELEC=+4  --------------------------------

 Density error is +5.82462657592e-05

 LCAO ALGORITHM --------------- ION=+2    ELEC=+5  --------------------------------

 Density error is +3.97659157205e-05

 LCAO ALGORITHM --------------- ION=+2    ELEC=+6  --------------------------------

 Density error is +1.21079896258e-05

 LCAO ALGORITHM --------------- ION=+2    ELEC=+7  --------------------------------

 Density error is +4.30644847645e-06

 LCAO ALGORITHM --------------- ION=+2    ELEC=+8  --------------------------------

 Density error is +1.50414740744e-06

 LCAO ALGORITHM --------------- ION=+2    ELEC=+9  --------------------------------

 Density error is +7.12803795364e-07

 charge density convergence is achieved
 final etot is -9454.94110262 eV

 ><><><><><><><><><><><><><><><><><><><><><><><><><><><><><><><><><><><

    TOTAL-FORCE (eV/Angstrom)

 ><><><><><><><><><><><><><><><><><><><><><><><><><><><><><><><><><><><

 atom    x              y              z              
 Si1     +0.046368961        +0.016447279        -0.34705297         
 Si2     +0.093342268        +0.62238506         +0.30274011         
 Si3     +0.5997389          +0.23706967         +0.35416862         
 Si4     -0.46264496         -0.098748682        -0.19742226         
 Si5     -0.14929224         -0.47697726         -0.39606803         
 Si6     -0.75474713         -0.69058577         -0.73581837         
 Si7     +0.20341903         -0.43604721         +0.023466089        
 Si8     +0.020127392        +0.2110744          -0.37327678         
 Si9     -0.29267966         +0.10604585         +0.55405153         
 Si10    +0.029503006        +0.21663294         +0.72186412         
 Si11    -0.092680699        +0.11178624         +0.5627418          
 Si12    -0.284556           +0.037756272        +0.57266792         
 Si13    +0.14322284         +0.13741252         -0.41233816         
 Si14    -0.094696345        -0.23473373         -0.25732958         
 Si15    +0.071734182        +0.2635145          +0.074718031        
 Si16    -0.35498897         -0.2126176          -0.10301065         
 Si17    +0.55540518         -0.069928636        -0.39998584         
 Si18    +0.24883428         -0.51075757         -0.1841058          
 Si19    +0.044567829        +0.48077803         +0.34811387         
 Si20    +0.35709225         -0.12254163         +0.13407178         
 Si21    -0.22334533         +0.25705666         +0.27186551         
 Si22    -0.24266582         -0.12376667         +1.0861006          
 Si23    -0.21872557         +0.24048377         +0.89183347         
 Si24    -0.031822647        -0.30380576         +0.6598345          
 Si25    +0.22379312         +0.04752858         -0.34382061         
 Si26    +0.16436467         -0.13289892         -0.38671116         
 Si27    -0.017619824        -0.17736144         -0.17074592         
 Si28    +0.38601724         +0.27124375         -0.39719654         
 Si29    -0.082451679        +0.39572261         -0.42044976         
 Si30    +0.048047834        -0.043990845        -0.14661429         
 Si31    -0.19547432         -0.24915143         -0.024185577        
 Si32    -0.28404141         -0.53277183         -0.23778701         
 Si33    -0.32119593         -0.0092646057       -0.31059199         
 Si34    +0.12846944         +0.70562305         +0.74604417         
 Si35    -0.12048833         +0.54718882         +1.133763           
 Si36    +0.20050538         +0.76309707         +0.99936461         
 C1      +0.40511803         +0.14214199         +0.29520338         
 C2      +0.022135611        +0.15723774         +0.5779712          
 C3      +0.52148319         +0.54629613         +0.33761472         
 C4      -0.23221758         +0.07681515         -0.025387848        
 C5      +0.16328894         +0.27998953         -0.18060634         
 C6      -0.091284707        -0.24038484         -0.086439294        
 C7      +0.40475745         -0.35338631         +0.38856382         
 C8      -0.54770477         +0.045509747        +1.1003281          
 C9      +0.47089236         +0.15943202         +0.34491754         
 C10     -0.47497528         -0.52781045         -1.1039165          
 C11     +0.068141801        -0.20149978         -1.1094637          
 C12     -0.36075767         -0.45859952         -1.0696419          
 C13     +0.2391627          -0.088787977        +0.14552763         
 C14     -0.24209432         +0.28354909         +0.16615071         
 C15     -0.33497868         +0.29891136         +0.33247555         
 C16     -0.19358581         -0.064893451        -0.23052702         
 C17     -0.032421255        +0.18729947         +0.39146347         
 C18     +0.21000339         -0.17513406         -0.28454457         
 C19     +0.37315823         -0.20688359         +0.26086159         
 C20     -0.097919291        -0.36210304         +0.20889143         
 C21     -0.00064811852      +0.52586597         +0.342769           
 C22     -0.15154196         -0.20471012         -0.90753865         
 C23     +0.13749264         -0.42680241         -0.85759403         
 C24     -0.073303388        -0.36100667         -1.3803268          
 C25     -0.1963327          +0.14042573         +0.12332646         
 C26     +0.32794084         +0.18794581         +0.12073464         
 C27     -0.095865224        -0.10816202         -0.04444963         
 C28     +0.32031147         +0.095763829        +0.44274901         
 C29     +0.37305892         -0.12332685         +0.19445531         
 C30     +0.033181978        +0.16209741         -0.14643817         
 C31     +0.12131813         +0.07325111         +0.16639981         
 C32     -0.17858558         +0.070901845        +0.3229626          
 C33     +0.0085752351       -0.076821114        +0.21760467         
 C34     -0.28402199         -0.20326477         -1.1488443          
 C35     +0.063932177        -0.25967148         -0.73463601         
 C36     -0.016151718        -0.23308292         -0.76351434         


 ><><><><><><><><><><><><><><><><><><><><><><><><><><><><><><><><><><><

 TOTAL-STRESS (KBAR)

 ><><><><><><><><><><><><><><><><><><><><><><><><><><><><><><><><><><><

 -46.485158             +3.700971              +6.530869              
 +3.700971              -73.809575             -17.753056             
 +6.530869              -17.753056             -105.908844            
 TOTAL-PRESSURE: -75.401193 KBAR


 ------------------------------------------------------------------------------------------------
 Energy              Potential           Kinetic             Temperature         Pressure (KBAR)     
 -347.45538          -347.46255          +0.007168371        +21.254364          -75.138807          
 ------------------------------------------------------------------------------------------------

output Pressure for check!
Virtual Pressure is -75.138807 Kbar 
Virial Term is -75.401193 Kbar 
Kenetic Term is +0.26238594 Kbar 


 ><><><><><><><><><><><><><><><><><><><><><><><><><><><><><><><><><><><

 MD STRESS (KBAR)

 ><><><><><><><><><><><><><><><><><><><><><><><><><><><><><><><><><><><

-46.24238      +3.7232602     +6.5407796     
+3.7232602     -73.466146     -17.744525     
+6.5407796     -17.744525     -105.70789     



 -------------------------------------------
 STEP OF MOLECULAR DYNAMICS : 2
 -------------------------------------------
 first order charge density extrapolation !
 searching radius is (Bohr))              = +25.29
 searching radius unit is (Bohr))         = +1.8897261
+1606206
 DONE : INIT SCF Time : +2992.74 (SEC)


 LCAO ALGORITHM --------------- ION=+3    ELEC=+1  --------------------------------

 Density error is +0.0015101432854

 LCAO ALGORITHM --------------- ION=+3    ELEC=+2  --------------------------------

 Density error is +0.000986507988404

 LCAO ALGORITHM --------------- ION=+3    ELEC=+3  --------------------------------

 Density error is +0.000872422744726

 LCAO ALGORITHM --------------- ION=+3    ELEC=+4  --------------------------------

 Density error is +0.000240833849794

 LCAO ALGORITHM --------------- ION=+3    ELEC=+5  --------------------------------

 Density error is +0.000170643516358

 LCAO ALGORITHM --------------- ION=+3    ELEC=+6  --------------------------------

 Density error is +5.66851510717e-05

 LCAO ALGORITHM --------------- ION=+3    ELEC=+7  --------------------------------

 Density error is +2.51063767369e-05

 LCAO ALGORITHM --------------- ION=+3    ELEC=+8  --------------------------------

 Density error is +5.07952509244e-06

 LCAO ALGORITHM --------------- ION=+3    ELEC=+9  --------------------------------

 Density error is +2.08471779621e-06

 LCAO ALGORITHM --------------- ION=+3    ELEC=+10 --------------------------------

 Density error is +8.10043707548e-07

 charge density convergence is achieved
 final etot is -9454.95143701 eV

 ><><><><><><><><><><><><><><><><><><><><><><><><><><><><><><><><><><><

    TOTAL-FORCE (eV/Angstrom)

 ><><><><><><><><><><><><><><><><><><><><><><><><><><><><><><><><><><><

 atom    x              y              z              
 Si1     +0.0030593758       +0.061861039        -0.28613992         
 Si2     +0.095895135        +0.60480357         +0.28202227         
 Si3     +0.59716079         +0.26473176         +0.34683186         
 Si4     -0.45909368         -0.091503395        -0.24686411         
 Si5     -0.18852909         -0.50425498         -0.35336895         
 Si6     -0.78927134         -0.68654822         -0.77888866         
 Si7     +0.20956739         -0.3999402          -0.010580644        
 Si8     -0.002958304        +0.16675939         -0.3880972          
 Si9     -0.32026657         +0.061014933        +0.5421205          
 Si10    +0.054552916        +0.15899418         +0.73597664         
 Si11    -0.14911814         +0.082154667        +0.54725874         
 Si12    -0.3191046          +0.037993063        +0.5886377          
 Si13    +0.14779479         +0.14316846         -0.43080803         
 Si14    -0.17099303         -0.27843618         -0.28326784         
 Si15    +0.047157734        +0.23330225         +0.079487731        
 Si16    -0.39940355         -0.2473852          -0.057224691        
 Si17    +0.55197217         +0.054618912        -0.42647041         
 Si18    +0.20261002         -0.55310498         -0.19088626         
 Si19    +0.058696705        +0.50671434         +0.35283951         
 Si20    +0.41722315         -0.15192779         +0.12492271         
 Si21    -0.21238129         +0.20748515         +0.29662101         
 Si22    -0.17588954         -0.075683936        +1.0896201          
 Si23    -0.16769904         +0.21446037         +0.82492063         
 Si24    -0.056538275        -0.33067685         +0.64301836         
 Si25    +0.19696682         -0.046185285        -0.31081951         
 Si26    +0.22037035         -0.12194825         -0.41932454         
 Si27    +0.042742297        -0.1144929          -0.20659759         
 Si28    +0.34860414         +0.25953049         -0.34726177         
 Si29    -0.10795942         +0.3537829          -0.42880318         
 Si30    -0.016212385        -0.072174406        -0.14793833         
 Si31    -0.18423932         -0.23544003         +0.0085186144       
 Si32    -0.30700133         -0.55795175         -0.22705659         
 Si33    -0.37923022         +0.0047691904       -0.25426686         
 Si34    +0.081054402        +0.67920165         +0.69834407         
 Si35    -0.21441792         +0.51596249         +1.075128           
 Si36    +0.12340725         +0.78712            +0.97945835         
 C1      +0.40796771         +0.16433558         +0.26377495         
 C2      +0.089695132        +0.17421859         +0.59793336         
 C3      +0.51090894         +0.50595052         +0.36648213         
 C4      -0.21279115         +0.069886219        +0.041230257        
 C5      +0.17426547         +0.36991142         -0.21773725         
 C6      -0.11295889         -0.23282164         -0.079083537        
 C7      +0.49304755         -0.36358361         +0.38395203         
 C8      -0.51349691         +0.12240521         +1.112352           
 C9      +0.54311612         +0.10345454         +0.35676742         
 C10     -0.54599081         -0.59188875         -1.1282295          
 C11     +0.16723869         -0.20088866         -1.0983368          
 C12     -0.42225896         -0.46718264         -1.1043349          
 C13     +0.31403502         -0.036683071        +0.093829262        
 C14     -0.17400677         +0.23264372         +0.11390017         
 C15     -0.3285556          +0.34088217         +0.25817361         
 C16     -0.13574514         -0.12117501         -0.28474865         
 C17     -0.071636774        +0.11465647         +0.45461559         
 C18     +0.24853781         -0.10204111         -0.23351243         
 C19     +0.34539192         -0.16097345         +0.32060663         
 C20     -0.045919471        -0.41612675         +0.29100312         
 C21     +0.072317012        +0.59508917         +0.32695254         
 C22     -0.19905547         -0.28270016         -0.83152025         
 C23     +0.092490006        -0.31582083         -0.836827           
 C24     -0.08734423         -0.33660029         -1.331356           
 C25     -0.12836041         +0.088477235        +0.07295832         
 C26     +0.38115647         +0.26606221         +0.13570769         
 C27     -0.1497725          -0.14780064         -0.028375522        
 C28     +0.25258765         +0.21090546         +0.4179764          
 C29     +0.40559779         -0.1357442          +0.17813923         
 C30     +0.045903142        +0.090210976        -0.16182644         
 C31     +0.15163369         +0.17235702         +0.11407179         
 C32     -0.21706977         +0.0079346399       +0.2837137          
 C33     -0.077858435        -0.028728793        +0.16627368         
 C34     -0.2178784          -0.22933775         -1.0862385          
 C35     +0.078534213        -0.20105575         -0.65692002         
 C36     +0.087746981        -0.1890025          -0.69242892         


 ><><><><><><><><><><><><><><><><><><><><><><><><><><><><><><><><><><><

 TOTAL-STRESS (KBAR)

 ><><><><><><><><><><><><><><><><><><><><><><><><><><><><><><><><><><><

 -46.485686             +4.027969              +6.229714              
 +4.027969              -73.928894             -17.887610             
 +6.229714              -17.887610             -106.042061            
 TOTAL-PRESSURE: -75.485547 KBAR


 ------------------------------------------------------------------------------------------------
 Energy              Potential           Kinetic             Temperature         Pressure (KBAR)     
 -347.44417          -347.46293          +0.018757422        +55.616134          -74.798963          
 ------------------------------------------------------------------------------------------------

output Pressure for check!
Virtual Pressure is -74.798963 Kbar 
Virial Term is -75.485547 Kbar 
Kenetic Term is +0.6865833 Kbar 


 ><><><><><><><><><><><><><><><><><><><><><><><><><><><><><><><><><><><

 MD STRESS (KBAR)

 ><><><><><><><><><><><><><><><><><><><><><><><><><><><><><><><><><><><

-45.675283     +4.0722861     +6.2820303     
+4.0722861     -73.253808     -17.981743     
+6.2820303     -17.981743     -105.4678      



 -------------------------------------------
 STEP OF MOLECULAR DYNAMICS : 3
 -------------------------------------------
 second order charge density extrapolation !
 searching radius is (Bohr))              = +25.29
 searching radius unit is (Bohr))         = +1.8897261
+1606394
 DONE : INIT SCF Time : +4071.71 (SEC)


 LCAO ALGORITHM --------------- ION=+4    ELEC=+1  --------------------------------

 Density error is +0.0018046749261

 LCAO ALGORITHM --------------- ION=+4    ELEC=+2  --------------------------------

 Density error is +0.00122043130843

 LCAO ALGORITHM --------------- ION=+4    ELEC=+3  --------------------------------

 Density error is +0.00114461477164

 LCAO ALGORITHM --------------- ION=+4    ELEC=+4  --------------------------------

 Density error is +0.000329274124848

 LCAO ALGORITHM --------------- ION=+4    ELEC=+5  --------------------------------

 Density error is +0.000187392328875

 LCAO ALGORITHM --------------- ION=+4    ELEC=+6  --------------------------------

 Density error is +6.44878638208e-05

 LCAO ALGORITHM --------------- ION=+4    ELEC=+7  --------------------------------

 Density error is +2.89586397446e-05

 LCAO ALGORITHM --------------- ION=+4    ELEC=+8  --------------------------------

 Density error is +6.99465629438e-06

 LCAO ALGORITHM --------------- ION=+4    ELEC=+9  --------------------------------

 Density error is +3.36617335364e-06

 LCAO ALGORITHM --------------- ION=+4    ELEC=+10 --------------------------------

 Density error is +1.74888208047e-06

 LCAO ALGORITHM --------------- ION=+4    ELEC=+11 --------------------------------

 Density error is +5.59995187531e-07

 charge density convergence is achieved
 final etot is -9454.91816524 eV

 ><><><><><><><><><><><><><><><><><><><><><><><><><><><><><><><><><><><

    TOTAL-FORCE (eV/Angstrom)

 ><><><><><><><><><><><><><><><><><><><><><><><><><><><><><><><><><><><

 atom    x              y              z              
 Si1     -0.027647704        +0.21832116         -0.31108125         
 Si2     +0.014634035        +0.64081117         +0.1963526          
 Si3     +0.59402819         +0.3100961          +0.31953046         
 Si4     -0.40384675         -0.10401038         -0.27230054         
 Si5     -0.25307974         -0.60759555         -0.36316927         
 Si6     -0.76073181         -0.72611547         -0.74919928         
 Si7     +0.26835867         -0.41632019         +0.0099645976       
 Si8     +0.071380166        +0.12452263         -0.43759603         
 Si9     -0.25985643         +0.064056878        +0.49428438         
 Si10    +0.058288203        +0.12777234         +0.69476814         
 Si11    -0.21678311         +0.11359431         +0.51914315         
 Si12    -0.29220947         +0.069315311        +0.5727892          
 Si13    +0.1850256          +0.12210725         -0.3392412          
 Si14    -0.27224187         -0.32584932         -0.3625764          
 Si15    +0.07714687         +0.2716407          +0.09536391         
 Si16    -0.50200492         -0.15277941         -0.028893554        
 Si17    +0.57074794         +0.064676677        -0.51123594         
 Si18    +0.17063085         -0.52268861         -0.27139507         
 Si19    -0.049021687        +0.47302834         +0.42528237         
 Si20    +0.44315777         -0.012888259        +0.24719765         
 Si21    -0.16888954         +0.23093376         +0.32118414         
 Si22    -0.21490564         -0.17109817         +1.1056684          
 Si23    -0.17023597         +0.30494817         +0.89665868         
 Si24    -0.032974131        -0.33999599         +0.70452505         
 Si25    +0.19943684         +0.030629641        -0.3571643          
 Si26    +0.17259268         -0.047848429        -0.47240779         
 Si27    -0.015962942        -0.13018443         -0.21130021         
 Si28    +0.23457763         +0.24036389         -0.30126031         
 Si29    -0.17675365         +0.26593877         -0.52924085         
 Si30    -0.12888598         +0.0068892471       -0.20612912         
 Si31    -0.29008915         -0.16669791         +0.083573987        
 Si32    -0.21008654         -0.59182211         -0.19243641         
 Si33    -0.34288693         +0.088372099        -0.16494171         
 Si34    +0.018540011        +0.65630243         +0.77148926         
 Si35    -0.25424364         +0.45247371         +1.0779824          
 Si36    +0.077949103        +0.76786402         +1.0363476          
 C1      +0.40388662         +0.18248357         +0.2622955          
 C2      +0.17082364         +0.27995925         +0.60576167         
 C3      +0.55360453         +0.47361878         +0.45474052         
 C4      -0.34599418         +0.052051436        +0.094373752        
 C5      +0.15388147         +0.38550978         -0.17748401         
 C6      -0.24088468         -0.26430352         -0.042577056        
 C7      +0.58103128         -0.38987357         +0.40347216         
 C8      -0.42887332         +0.13651532         +1.1568867          
 C9      +0.57708161         +0.11319791         +0.45613436         
 C10     -0.5402494          -0.51422183         -1.1179909          
 C11     +0.23404124         -0.31311337         -1.1457805          
 C12     -0.46189025         -0.62291941         -1.1116091          
 C13     +0.44512308         +0.076160512        +0.082003754        
 C14     -0.10221595         +0.13598004         +0.24093206         
 C15     -0.29073576         +0.3498451          +0.22790873         
 C16     -0.14363674         -0.1154973          -0.27971379         
 C17     -0.14175262         +0.069528465        +0.35549472         
 C18     +0.31842943         -0.17010312         -0.21148633         
 C19     +0.41152651         -0.0036746615       +0.23030528         
 C20     -0.015844042        -0.46233349         +0.15011571         
 C21     +0.002942508        +0.55783967         +0.23383435         
 C22     -0.22449999         -0.31990954         -0.8455116          
 C23     +0.093858663        -0.3512461          -0.84648012         
 C24     +0.015088975        -0.36914611         -1.3186581          
 C25     -0.020555279        +0.18756073         +0.16788805         
 C26     +0.29887143         +0.15289776         +0.10411553         
 C27     -0.091407974        -0.21406054         +0.029849914        
 C28     +0.31271911         +0.11721597         +0.46135042         
 C29     +0.37099003         -0.054543593        +0.26821112         
 C30     +0.12906057         +0.031982806        -0.26515866         
 C31     +0.19758203         +0.13871967         +0.014486754        
 C32     -0.32562826         +0.11020512         +0.29658173         
 C33     -0.091166058        -0.066307728        +0.057636861        
 C34     -0.11850527         -0.20347478         -1.0920087          
 C35     -0.015510228        -0.22951142         -0.70959115         
 C36     +0.21565029         -0.21579617         -0.68086646         


 ><><><><><><><><><><><><><><><><><><><><><><><><><><><><><><><><><><><

 TOTAL-STRESS (KBAR)

 ><><><><><><><><><><><><><><><><><><><><><><><><><><><><><><><><><><><

 -45.762827             +4.516307              +5.890887              
 +4.516307              -74.382143             -17.685274             
 +5.890887              -17.685274             -105.876513            
 TOTAL-PRESSURE: -75.340495 KBAR


 ------------------------------------------------------------------------------------------------
 Energy              Potential           Kinetic             Temperature         Pressure (KBAR)     
 -347.4377           -347.46171          +0.024009159        +71.187638          -74.46168           
 ------------------------------------------------------------------------------------------------

output Pressure for check!
Virtual Pressure is -74.46168 Kbar 
Virial Term is -75.340495 Kbar 
Kenetic Term is +0.87881411 Kbar 


 ><><><><><><><><><><><><><><><><><><><><><><><><><><><><><><><><><><><

 MD STRESS (KBAR)

 ><><><><><><><><><><><><><><><><><><><><><><><><><><><><><><><><><><><

-44.901399     +4.2749021     +5.7802933     
+4.2749021     -73.375383     -17.716891     
+5.7802933     -17.716891     -105.10826     



 -------------------------------------------
 STEP OF MOLECULAR DYNAMICS : 4
 -------------------------------------------
 second order charge density extrapolation !
 searching radius is (Bohr))              = +25.29
 searching radius unit is (Bohr))         = +1.8897261
+1605866
 DONE : INIT SCF Time : +5240.27 (SEC)


 LCAO ALGORITHM --------------- ION=+5    ELEC=+1  --------------------------------

 Density error is +0.00234724699814

 LCAO ALGORITHM --------------- ION=+5    ELEC=+2  --------------------------------

 Density error is +0.00140797547125

 LCAO ALGORITHM --------------- ION=+5    ELEC=+3  --------------------------------

 Density error is +0.00132446221589

 LCAO ALGORITHM --------------- ION=+5    ELEC=+4  --------------------------------

 Density error is +0.000319197851739

 LCAO ALGORITHM --------------- ION=+5    ELEC=+5  --------------------------------

 Density error is +0.000227705528553

 LCAO ALGORITHM --------------- ION=+5    ELEC=+6  --------------------------------

 Density error is +9.47131258835e-05

 LCAO ALGORITHM --------------- ION=+5    ELEC=+7  --------------------------------

 Density error is +3.6262196439e-05

 LCAO ALGORITHM --------------- ION=+5    ELEC=+8  --------------------------------

 Density error is +7.31011110262e-06

 LCAO ALGORITHM --------------- ION=+5    ELEC=+9  --------------------------------

 Density error is +3.69714259587e-06

 LCAO ALGORITHM --------------- ION=+5    ELEC=+10 --------------------------------

 Density error is +1.94462124597e-06

 LCAO ALGORITHM --------------- ION=+5    ELEC=+11 --------------------------------

 Density error is +6.96087192327e-07

 charge density convergence is achieved
 final etot is -9454.92142934 eV

 ><><><><><><><><><><><><><><><><><><><><><><><><><><><><><><><><><><><

    TOTAL-FORCE (eV/Angstrom)

 ><><><><><><><><><><><><><><><><><><><><><><><><><><><><><><><><><><><

 atom    x              y              z              
 Si1     -0.024795756        +0.17816415         -0.34063234         
 Si2     +0.2133677          +0.58584959         +0.25299051         
 Si3     +0.64943466         +0.36092692         +0.33658218         
 Si4     -0.34256735         -0.082471894        -0.23226068         
 Si5     -0.26377148         -0.650449           -0.35125791         
 Si6     -0.67294551         -0.80987322         -0.85449947         
 Si7     +0.2956969          -0.39686338         +0.096575001        
 Si8     +0.18697366         +0.017214641        -0.35530035         
 Si9     -0.37273415         +0.076776308        +0.47312869         
 Si10    +0.043988315        +0.10304672         +0.72468562         
 Si11    -0.20119551         +0.1668196          +0.54025629         
 Si12    -0.34762894         +0.036827016        +0.63300836         
 Si13    +0.069244619        +0.14852651         -0.28602938         
 Si14    -0.24985968         -0.33982677         -0.2214367          
 Si15    +0.080889455        +0.26999173         +0.21457949         
 Si16    -0.58929213         -0.096436602        -0.086944678        
 Si17    +0.53710887         +0.069624341        -0.52908464         
 Si18    +0.28551222         -0.59032571         -0.33473915         
 Si19    +0.090443191        +0.41572834         +0.48150536         
 Si20    +0.37602013         -0.066511409        +0.22350687         
 Si21    -0.12177396         +0.16905273         +0.2751151          
 Si22    -0.25314307         -0.17299362         +1.1650143          
 Si23    -0.28833269         +0.42978289         +0.86384326         
 Si24    -0.072748248        -0.29669301         +0.70082317         
 Si25    +0.26611378         -0.00095399482      -0.48136002         
 Si26    +0.26064138         -0.063452241        -0.48767131         
 Si27    +0.033397473        -0.024595732        -0.32549379         
 Si28    +0.20987565         +0.37243902         -0.30095904         
 Si29    -0.15216212         +0.39423562         -0.46690453         
 Si30    -0.13569131         +0.084311992        -0.085025189        
 Si31    -0.27691573         -0.26210624         +0.0016574164       
 Si32    -0.30275991         -0.60335075         -0.10963867         
 Si33    -0.36974214         +0.19777413         -0.1300966          
 Si34    -0.0091105883       +0.61680396         +0.73897367         
 Si35    -0.23968934         +0.45699433         +1.0932195          
 Si36    +0.18885875         +0.70780137         +0.94969453         
 C1      +0.47609096         +0.1006196          +0.31205837         
 C2      +0.047878693        +0.34050435         +0.59774036         
 C3      +0.53871372         +0.50451363         +0.34381887         
 C4      -0.46737267         -0.10146261         +0.19036309         
 C5      +0.27849434         +0.52215435         -0.2552496          
 C6      -0.37370517         -0.11056284         -0.030865245        
 C7      +0.63041422         -0.29558936         +0.31775455         
[...]
 C14     +0.098800163        -0.12824497         +0.48048863         
 C15     -0.23112735         -0.055313447        -0.10212544         
 C16     -0.13630817         -0.51195696         -0.48797355         
 C17     +0.14249806         +0.39763882         +0.49770776         
 C18     +0.22053676         +0.0004182074       +0.35143703         
 C19     +0.70167124         +0.086976109        +0.12019811         
 C20     +0.10118362         -0.58727023         +0.54049442         
 C21     +0.040268799        +0.78532248         +0.10673569         
 C22     -0.60316448         -0.36565431         -0.79982509         
 C23     -0.12503864         -0.28050983         -0.53021516         
 C24     -0.60548015         -0.3106721          -1.5954132          
 C25     -0.30730216         +0.077378258        +0.1253685          
 C26     -0.095924356        +0.40165943         +0.3484117          
 C27     -0.57094241         -0.41557184         +0.2090541          
 C28     +0.26141568         +0.28114135         -0.13514026         
 C29     +0.3663912          -0.21840797         +0.070790242        
 C30     -0.14106313         -0.12566167         -0.11110534         
 C31     +0.1924151          -0.13399452         +0.39809102         
 C32     -0.01766942         +0.20417598         +0.31937646         
 C33     -0.25301486         +0.058130741        +0.18304368         
 C34     -0.17747596         -0.060297048        -0.96623431         
 C35     +0.050788345        +0.5162417          -0.95715302         
 C36     -0.03965726         -0.12294776         -0.36120496         


 ><><><><><><><><><><><><><><><><><><><><><><><><><><><><><><><><><><><

 TOTAL-STRESS (KBAR)

 ><><><><><><><><><><><><><><><><><><><><><><><><><><><><><><><><><><><

 -47.315930             +7.275351              +6.680700              
 +7.275351              -73.498256             -18.339134             
 +6.680700              -18.339134             -104.363994            
 TOTAL-PRESSURE: -75.059393 KBAR


 ------------------------------------------------------------------------------------------------
 Energy              Potential           Kinetic             Temperature         Pressure (KBAR)     
 -347.38005          -347.45687          +0.076823277        +227.78256          -72.247409          
 ------------------------------------------------------------------------------------------------

output Pressure for check!
Virtual Pressure is -72.247409 Kbar 
Virial Term is -75.059393 Kbar 
Kenetic Term is +2.8119844 Kbar 


 ><><><><><><><><><><><><><><><><><><><><><><><><><><><><><><><><><><><

 MD STRESS (KBAR)

 ><><><><><><><><><><><><><><><><><><><><><><><><><><><><><><><><><><><

-44.902352     +7.092984      +7.0579526     
+7.092984      -70.613805     -18.603112     
+7.0579526     -18.603112     -101.22607     



 -------------------------------------------
 STEP OF MOLECULAR DYNAMICS : 10
 -------------------------------------------
 second order charge density extrapolation !
 searching radius is (Bohr))              = +25.29
 searching radius unit is (Bohr))         = +1.8897261
+1606514
 DONE : INIT SCF Time : +12475.6 (SEC)


 LCAO ALGORITHM --------------- ION=+11   ELEC=+1  --------------------------------

 Density error is +0.00343343703444

 LCAO ALGORITHM --------------- ION=+11   ELEC=+2  --------------------------------

 Density error is +0.00204092594773

 LCAO ALGORITHM --------------- ION=+11   ELEC=+3  --------------------------------

 Density error is +0.00184208886031

 LCAO ALGORITHM --------------- ION=+11   ELEC=+4  --------------------------------

 Density error is +0.000508902289565

 LCAO ALGORITHM --------------- ION=+11   ELEC=+5  --------------------------------

 Density error is +0.000396017440909

 LCAO ALGORITHM --------------- ION=+11   ELEC=+6  --------------------------------

 Density error is +0.000132054905585

 LCAO ALGORITHM --------------- ION=+11   ELEC=+7  --------------------------------

 Density error is +5.47836911706e-05

 LCAO ALGORITHM --------------- ION=+11   ELEC=+8  --------------------------------

 Density error is +9.70431207061e-06

 LCAO ALGORITHM --------------- ION=+11   ELEC=+9  --------------------------------

 Density error is +3.72636453234e-06

 LCAO ALGORITHM --------------- ION=+11   ELEC=+10 --------------------------------

 Density error is +1.6037194574e-06

 LCAO ALGORITHM --------------- ION=+11   ELEC=+11 --------------------------------

 Density error is +1.35726862578e-06

 LCAO ALGORITHM --------------- ION=+11   ELEC=+12 --------------------------------

 Density error is +3.62460252686e-07

 charge density convergence is achieved
 final etot is -9454.74208867 eV

 ><><><><><><><><><><><><><><><><><><><><><><><><><><><><><><><><><><><

    TOTAL-FORCE (eV/Angstrom)

 ><><><><><><><><><><><><><><><><><><><><><><><><><><><><><><><><><><><

 atom    x              y              z              
 Si1     -0.13334386         -0.097006211        -0.32683506         
 Si2     -0.19619659         +0.62811695         +0.058737182        
 Si3     +0.85116014         +0.43033915         +0.54288958         
 Si4     -0.04063286         +0.20998506         -0.36260739         
 Si5     -0.015045938        -0.37912857         -0.52739241         
 Si6     -0.45297915         -1.0876543          -1.2145675          
 Si7     +0.33018668         -0.18011456         -0.1645578          
 Si8     +0.5243714          -0.062104274        -0.35460686         
 Si9     -0.19257268         +0.047673499        +0.24321012         
 Si10    +0.43666991         +0.078248452        +0.43515923         
 Si11    +0.19006103         +0.29390372         +0.64987693         
 Si12    -0.78756923         -0.28312873         +0.89192219         
 Si13    +0.46065303         -0.17340585         -0.62732135         
 Si14    -0.17175104         -0.44637418         -0.74778316         
 Si15    +0.33971361         +0.09420118         +0.55470282         
 Si16    -0.50809659         -0.11969555         -0.21728393         
 Si17    +0.45463728         +0.44881801         -0.37650721         
 Si18    +0.46210533         -0.43859216         -0.62858187         
 Si19    +0.49600148         +0.49712717         +0.22846725         
 Si20    +0.234614           -0.42778872         +0.11179702         
 Si21    -0.18263061         -0.23409962         +0.30246131         
 Si22    -0.18595125         -0.19052442         +1.1183748          
 Si23    -0.39762916         +0.42848237         +0.48679793         
 Si24    -0.29693106         -0.48500923         +0.68225793         
 Si25    +0.35677012         -0.32262562         -0.59096096         
 Si26    +0.56045889         -0.129203           -0.56797909         
 Si27    +0.34624524         -0.48855055         -0.29302247         
 Si28    -0.088056781        +0.37482983         -0.099906734        
 Si29    -0.26126033         +0.38481831         -0.35278991         
 Si30    -0.29942592         +0.1521261          -0.078216441        
 Si31    +0.031721047        -0.14312984         -0.13831163         
 Si32    -0.33020025         -0.53953765         -0.37231833         
 Si33    -0.55174495         -0.14404175         -0.29204787         
 Si34    -0.018625408        +0.80254216         +0.80489541         
 Si35    +0.0053505923       +0.12862038         +1.2512655          
 Si36    -0.083821564        +0.76623134         +0.90721018         
 C1      +0.66047699         +0.009536337        +0.058547517        
 C2      +0.35519232         +0.60430244         +1.0259289          
 C3      +0.39323777         +0.22756709         +0.2030476          
 C4      -0.8159717          +0.39305917         +0.37721373         
 C5      -0.024975221        +0.055046849        +0.15118766         
 C6      -0.3102808          -0.070669627        +0.4419938          
 C7      +0.97595735         +0.12292063         +0.049417769        
 C8      -0.4281254          +0.14364982         +1.1967481          
 C9      +0.031119479        +0.012157441        +0.30145222         
 C10     -0.75392825         -0.038994029        -1.0618856          
 C11     +0.10761024         -0.39077531         -1.0583178          
 C12     -0.14927009         -0.59071825         -1.1601977          
 C13     +0.73788409         +0.26375546         +0.38519884         
 C14     +0.19209856         -0.34929624         +0.69337677         
 C15     -0.23841222         +0.12695873         +0.025699734        
 C16     -0.26195386         -0.65165722         -0.33278874         
 C17     +0.23118794         +0.60175028         +0.35265813         
 C18     +0.22750538         +0.031982083        +0.33395966         
 C19     +0.76454939         +0.13068122         +0.22739116         
 C20     +0.050195567        -0.78791079         +0.47217913         
 C21     -0.041357994        +0.82167064         +0.082293468        
 C22     -0.52701963         -0.42584609         -0.7237306          
 C23     -0.15686928         -0.19177478         -0.41692754         
 C24     -0.54964004         -0.15685272         -1.4536361          
 C25     -0.40526723         -0.12925921         +0.11620716         
 C26     -0.32346155         +0.36949863         +0.47832033         
 C27     -0.44337178         -0.58266623         +0.19307391         
 C28     +0.047144113        +0.43862212         -0.31143984         
 C29     +0.49021435         -0.10856176         +0.13502101         
 C30     -0.22718925         +0.1306194          -0.011096709        
 C31     +0.24857853         -0.210277           +0.27664519         
 C32     -0.26000822         +0.4222256          +0.34660615         
 C33     -0.13727927         -0.0032060783       +0.18144179         
 C34     -0.19321906         +0.1767864          -1.146808           
 C35     -0.16150731         +0.40324559         -1.013013           
 C36     +0.0099014926       -0.19191952         -0.35219546         


 ><><><><><><><><><><><><><><><><><><><><><><><><><><><><><><><><><><><

 TOTAL-STRESS (KBAR)

 ><><><><><><><><><><><><><><><><><><><><><><><><><><><><><><><><><><><

 -48.964449             +6.768668              +7.048465              
 +6.768668              -72.102974             -18.669731             
 +7.048465              -18.669731             -103.682617            
 TOTAL-PRESSURE: -74.916680 KBAR


 ------------------------------------------------------------------------------------------------
 Energy              Potential           Kinetic             Temperature         Pressure (KBAR)     
 -347.3513           -347.45524          +0.10393819         +308.17881          -71.1122            
 ------------------------------------------------------------------------------------------------

output Pressure for check!
Virtual Pressure is -71.1122 Kbar 
Virial Term is -74.91668 Kbar 
Kenetic Term is +3.8044793 Kbar 


 ><><><><><><><><><><><><><><><><><><><><><><><><><><><><><><><><><><><

 MD STRESS (KBAR)

 ><><><><><><><><><><><><><><><><><><><><><><><><><><><><><><><><><><><

-45.28167      +6.8887179     +6.7569772     
+6.8887179     -68.105565     -19.010513     
+6.7569772     -19.010513     -99.949367     




 --------------------------------------------
 !FINAL_ETOT_IS -9454.742088672248 eV
 --------------------------------------------






  |CLASS_NAME---------|NAME---------------|TIME(Sec)-----|CALLS----|AVG------|PER%-------
                       total               +13742         27        +5.1e+02  +1e+02    %
   Driver              driver_line         +13742         1         +1.4e+04  +1e+02    %
   PW_Basis            setup_struc_factor  +1.2519        11        +0.11     +0.0091   %
   ORB_control         read_orb_first      +0.18576       1         +0.19     +0.0014   %
   LCAO_Orbitals       Read_Orbitals       +0.18576       1         +0.19     +0.0014   %
   NOrbital_Lm         extra_uniform       +0.10441       16        +0.0065   +0.00076  %
   ORB_control         set_orb_tables      +8.2089        1         +8.2      +0.06     %
   ORB_gen_tables      gen_tables          +8.2089        1         +8.2      +0.06     %
   ORB_table_phi       init_Table          +6.4316        1         +6.4      +0.047    %
   ORB_table_phi       cal_ST_Phi12_R      +6.401         558       +0.011    +0.047    %
   ORB_table_beta      init_Table_Beta     +1.5615        1         +1.6      +0.011    %
   ORB_table_beta      VNL_PhiBeta_R       +1.5548        168       +0.0093   +0.011    %
   ppcell_vl           init_vloc           +0.26469       1         +0.26     +0.0019   %
   Run_MD              md_line             +13733         1         +1.4e+04  +1e+02    %
   Langevin            setup               +1959.9        1         +2e+03    +14       %
   MD_func             force_stress        +13733         11        +1.2e+03  +1e+02    %
   ESolver_KS_LCAO     Run                 +12704         11        +1.2e+03  +92       %
   ESolver_KS_LCAO     beforescf           +26.015        11        +2.4      +0.19     %
   ESolver_KS_LCAO     beforesolver        +9.2223        11        +0.84     +0.067    %
   ESolver_KS_LCAO     set_matrix_grid     +5.783         11        +0.53     +0.042    %
   Grid_Technique      init                +3.3051        11        +0.3      +0.024    %
   Grid_BigCell        grid_expansion_index+0.93544       22        +0.043    +0.0068   %
   Record_adj          for_2d              +2.0884        11        +0.19     +0.015    %
   Grid_Driver         Find_atom           +16.898        693864    +2.4e-05  +0.12     %
   Charge              atomic_rho          +14.52         21        +0.69     +0.11     %
   PW_Basis            recip2real          +3.1181        760       +0.0041   +0.023    %
   PW_Basis            gathers_scatterp    +1.5959        760       +0.0021   +0.012    %
   Potential           init_pot            +1.0395        11        +0.094    +0.0076   %
   Potential           update_from_charge  +12.006        139       +0.086    +0.087    %
   Potential           cal_v_eff           +11.949        139       +0.086    +0.087    %
   H_Hartree_pw        v_hartree           +1.3509        139       +0.0097   +0.0098   %
   PW_Basis            real2recip          +3.9143        1156      +0.0034   +0.028    %
   PW_Basis            gatherp_scatters    +1.6634        1156      +0.0014   +0.012    %
   PotXC               cal_v_eff           +10.503        139       +0.076    +0.076    %
   XC_Functional       v_xc                +10.444        139       +0.075    +0.076    %
   HSolverLCAO         solve               +12655         128       +99       +92       %
   HamiltLCAO          updateHk            +4489.7        4608      +0.97     +33       %
   OperatorLCAO        init                +3850.4        9216      +0.42     +28       %
   Veff                contributeHk        +3847.7        4608      +0.84     +28       %
   Gint_interface      cal_gint            +6135.4        267       +23       +45       %
   Gint_interface      cal_gint_vlocal     +2992.1        128       +23       +22       %
   Gint_k              folding_vl_k        +855.56        4608      +0.19     +6.2      %
   Gint_k              Distri              +587.44        4608      +0.13     +4.3      %
   Overlap             contributeHR        +4.3167        11        +0.39     +0.031    %
   LCAO_gen_fixedH     calculate_S_no      +4.3167        11        +0.39     +0.031    %
   Ekinetic<OperatorLCAO>contributeHR        +4.3915        11        +0.4      +0.032    %
   Nonlocal<OperatorLCAO>contributeHR        +47.915        11        +4.4      +0.35     %
   LCAO_gen_fixedH     build_Nonlocal_mu_new+151.62        22        +6.9      +1.1      %
   ORB_gen_tables      snap_psibeta_half   +3.3373        1230732   +2.7e-06  +0.024    %
   OperatorLCAO        folding_fixed       +582.68        4608      +0.13     +4.2      %
   LCAO_nnr            folding_fixedH      +574.68        4608      +0.12     +4.2      %
   HSolverLCAO         hamiltSolvePsiK     +1952.2        4608      +0.42     +14       %
   DiagoElpa           elpa_solve          +1935.5        4608      +0.42     +14       %
   ElecStateLCAO       psiToRho            +6213          128       +49       +45       %
   elecstate           cal_dm              +271.41        139       +2        +2        %
   psiMulPsiMpi        pdgemm              +265.38        5004      +0.053    +1.9      %
    Local_Orbital_wfc  wfc_2d_to_grid      +33.659        4608      +0.0073   +0.24     %
   LCAO_Charge         cal_dk_k            +3322.1        128       +26       +24       %
   Record_adj          for_grid            +0.65719       128       +0.0051   +0.0048   %
   Gint_interface      cal_gint_rho        +2613.8        128       +20       +19       %
   Charge              mix_rho             +1.7931        117       +0.015    +0.013    %
   Force_Stress_LCAO   getForceStress      +1028.7        11        +94       +7.5      %
   Forces              cal_force_loc       +0.97637       11        +0.089    +0.0071   %
   Forces              cal_force_ew        +0.94246       11        +0.086    +0.0069   %
   Forces              cal_force_scc       +8.104         11        +0.74     +0.059    %
   Stress_Func         stress_loc          +7.0689        11        +0.64     +0.051    %
   Stress_Func         stress_ewa          +0.42708       11        +0.039    +0.0031   %
   Stress_Func         stress_gga          +0.48725       11        +0.044    +0.0035   %
   Force_LCAO_k        ftable_k            +1010.6        11        +92       +7.4      %
   Force_LCAO_k        allocate_k          +132.9         11        +12       +0.97     %
   Force_LCAO_k        cal_foverlap_k      +37.472        11        +3.4      +0.27     %
   Force_LCAO_k        cal_edm_2d          +36.514        11        +3.3      +0.27     %
   Local_Orbital_Chargecal_dm_R            +12.18         22        +0.55     +0.089    %
   Force_LCAO_k        cal_ftvnl_dphi_k    +0.30927       11        +0.028    +0.0023   %
   Force_LCAO_k        cal_fvl_dphi_k      +529.42        11        +48       +3.9      %
   Gint_interface      cal_gint_force      +529.42        11        +48       +3.9      %
   Force_LCAO_k        cal_fvnl_dbeta_k_new+276.98        11        +25       +2        %
 ----------------------------------------------------------------------------------------

 CLASS_NAME---------|NAME---------------|MEMORY(MB)--------
                                         +2.74e+04
 ORB_table_phi       Jl(x)               +138.2         
 allocate_pvpR       pvpR_reduced        +85.82         
 LocalOrbital_Charge Density_Matrix      +85.82         
 stress_lo           dSR                 +73.54         
 force_lo            dS                  +36.77         
 force_lo            dTVNL               +36.77         
 Force_LCAO_k        dm2d                +12.26         
 ORB_table_phi       Table_SR&TR         +10.58         
 Grid_Meshcell       index2normal        +8.435         
 Grid_Meshcell       index2ucell         +8.435         
 Charge_Mixing       Rrho                +7.031         
 Charge_Mixing       dRrho               +6.152         
 Charge_Mixing       drho                +6.152         
 LocalOrbital_Coef   wfc_k_grid          +4.181         
 init_meshball       meshball_pos        +3.472         
 atoms_on_grid       which_atom          +2.615         
 atoms_on_grid       which_bigcell       +2.615         
 atoms_on_grid       which_unitcell      +2.615         
 ORB_table_beta      Table_NR            +2.045         
 PW_Basis            struc_fac           +1.381         
 ----------------------------------------------------------

 Start  Time  : Mon May 22 14:16:29 2023
 Finish Time  : Mon May 22 18:05:32 2023
 Total  Time  : 3 h 49 mins 3 secs 
