WARNING: Total thread number on this node mismatches with hardware availability. This may cause poor performance.
Info: Local MPI proc number: 16,OpenMP thread number: 1,Total thread number: 16,Local thread limit: 32
 *********************************************************
 *                                                       *
 *                  WELCOME TO ABACUS v3.0               *
 *                                                       *
 *            'Atomic-orbital Based Ab-initio            *
 *                  Computation at UStc'                 *
 *                                                       *
 *          Website: http://abacus.ustc.edu.cn/          *
 *                                                       *
 *********************************************************
 Mon May 22 14:16:30 2023
 MAKE THE DIR         : OUT.ABACUS/
 MAKE THE STRU DIR    : OUT.ABACUS/STRU/
 UNIFORM GRID DIM     : 120 * 120 * 128
 UNIFORM GRID DIM(BIG): 60 * 60 * 64
 DONE(0.082191   SEC) : SETUP UNITCELL
 DONE(0.0891748  SEC) : INIT K-POINTS
 ---------------------------------------------------------
 Molecular Dynamics simulations
 ---------------------------------------------------------
 ENSEMBLE                 : Langevin
 Time interval(fs)        : 1
 ---------------------------------------------------------
 SPIN    KPOINTS         PROCESSORS  NBASE       
 1       36              16          1584        
 ---------------------------------------------------------
 Use Systematically Improvable Atomic bases
 ---------------------------------------------------------
 ELEMENT ORBITALS        NBASE       NATOM       XC          
 Si      3s3p2d-9au      22          36          
 C       3s3p2d-9au      22          36          
 ---------------------------------------------------------
 Initial plane wave basis and FFT box
 ---------------------------------------------------------
--------------------------------- INITVEL DONE ------------------------------------
 -------------------------------------------
 STEP OF MOLECULAR DYNAMICS : 0
 -------------------------------------------
 START CHARGE      : atomic
 DONE(9.00954    SEC) : INIT SCF
 ITER   ETOT(eV)       EDIFF(eV)      DRHO       TIME(s)    
 GE1    -9.376068e+03  0.000000e+00   2.705e-01  1.023e+02  
 GE2    -9.420910e+03  -4.484241e+01  1.623e-01  9.721e+01  
 GE3    -9.429478e+03  -8.567705e+00  4.598e-02  9.735e+01  
 GE4    -9.407365e+03  2.211340e+01   8.770e-02  9.759e+01  
 GE5    -9.449472e+03  -4.210774e+01  2.333e-02  9.738e+01  
 GE6    -9.449926e+03  -4.538539e-01  1.245e-02  9.731e+01  
 GE7    -9.449924e+03  2.332247e-03   6.688e-03  9.735e+01  
 GE8    -9.449929e+03  -4.759056e-03  4.529e-03  9.725e+01  
 GE9    -9.449899e+03  2.946478e-02   3.238e-03  9.732e+01  
 GE10   -9.449906e+03  -6.254102e-03  2.574e-03  9.715e+01  
 GE11   -9.449930e+03  -2.475049e-02  7.094e-04  9.731e+01  
 GE12   -9.449931e+03  -1.131807e-03  2.662e-04  9.738e+01  
 GE13   -9.449931e+03  -1.476527e-05  1.402e-04  9.740e+01  
 GE14   -9.449931e+03  -2.715493e-05  5.506e-05  9.722e+01  
 GE15   -9.449931e+03  -1.648235e-06  3.463e-05  9.728e+01  
 GE16   -9.449931e+03  -2.947174e-06  2.012e-05  9.732e+01  
 GE17   -9.449931e+03  -5.410714e-07  1.792e-05  9.730e+01  
 GE18   -9.449931e+03  -1.034093e-06  1.691e-06  9.731e+01  
 GE19   -9.449931e+03  3.308581e-09   1.294e-06  9.731e+01  
 GE20   -9.449931e+03  -2.355759e-09  3.369e-07  9.729e+01  
 ><><><><><><><><><><><><><><><><><><><><><><
 TOTAL-STRESS (KBAR):
 ><><><><><><><><><><><><><><><><><><><><><><
 -1.144e+02     -1.653e+00     -1.818e+00     
 -1.653e+00     5.690e+01      -3.160e+01     
 -1.818e+00     -3.160e+01     -1.333e+02     
 TOTAL-PRESSURE: -6.361e+01 KBAR
 ------------------------------------------------------------------------------------------------
 Energy              Potential           Kinetic             Temperature         Pressure (KBAR)     
 -3.473e+02          -3.473e+02          3.373e-03           1.000e+01           -6.349e+01          
 ------------------------------------------------------------------------------------------------
 -------------------------------------------
 STEP OF MOLECULAR DYNAMICS : 1
 -------------------------------------------
 DONE(2.054e+03  SEC) : INIT SCF
 ITER   ETOT(eV)       EDIFF(eV)      DRHO       TIME(s)    
 GE1    -9.449992e+03  0.000000e+00   4.776e-04  1.020e+02  
 GE2    -9.449992e+03  1.103905e-04   2.956e-04  9.664e+01  
 GE3    -9.449992e+03  -2.055411e-04  2.907e-04  9.681e+01  
 GE4    -9.449992e+03  -2.349925e-04  6.368e-05  9.692e+01  
 GE5    -9.449992e+03  -7.487469e-06  5.447e-05  9.672e+01  
 GE6    -9.449992e+03  -1.218696e-05  2.062e-05  9.657e+01  
 GE7    -9.449992e+03  -1.389268e-06  5.903e-06  9.665e+01  
 GE8    -9.449992e+03  -9.380965e-08  1.597e-06  9.675e+01  
 GE9    -9.449992e+03  -3.144622e-09  7.205e-07  9.659e+01  
 ><><><><><><><><><><><><><><><><><><><><><><
 TOTAL-STRESS (KBAR):
 ><><><><><><><><><><><><><><><><><><><><><><
 -1.143e+02     -1.526e+00     -1.889e+00     
 -1.526e+00     5.599e+01      -3.156e+01     
 -1.889e+00     -3.156e+01     -1.334e+02     
 TOTAL-PRESSURE: -6.392e+01 KBAR
 ------------------------------------------------------------------------------------------------
 Energy              Potential           Kinetic             Temperature         Pressure (KBAR)     
 -3.473e+02          -3.473e+02          8.581e-03           2.544e+01           -6.361e+01          
 ------------------------------------------------------------------------------------------------
 -------------------------------------------
 STEP OF MOLECULAR DYNAMICS : 2
 -------------------------------------------
 DONE(3.023e+03  SEC) : INIT SCF
 ITER   ETOT(eV)       EDIFF(eV)      DRHO       TIME(s)    
 GE1    -9.450115e+03  0.000000e+00   1.525e-03  1.019e+02  
 GE2    -9.450113e+03  1.508832e-03   1.024e-03  9.672e+01  
 GE3    -9.450116e+03  -2.483885e-03  9.457e-04  9.678e+01  
 GE4    -9.450118e+03  -2.583753e-03  2.816e-04  9.667e+01  
 GE5    -9.450118e+03  -2.630564e-04  1.889e-04  9.675e+01  
 GE6    -9.450119e+03  -1.249849e-04  5.942e-05  9.672e+01  
 GE7    -9.450119e+03  -1.075916e-05  2.662e-05  9.684e+01  
 GE8    -9.450119e+03  -2.163712e-06  5.502e-06  9.671e+01  
 GE9    -9.450119e+03  -7.622884e-08  2.382e-06  9.667e+01  
 GE10   -9.450119e+03  -9.293107e-09  8.574e-07  9.670e+01  
 ><><><><><><><><><><><><><><><><><><><><><><
 TOTAL-STRESS (KBAR):
 ><><><><><><><><><><><><><><><><><><><><><><
 -1.144e+02     -1.157e+00     -2.229e+00     
 -1.157e+00     5.444e+01      -3.174e+01     
 -2.229e+00     -3.174e+01     -1.342e+02     
 TOTAL-PRESSURE: -6.470e+01 KBAR
 ------------------------------------------------------------------------------------------------
 Energy              Potential           Kinetic             Temperature         Pressure (KBAR)     
 -3.473e+02          -3.473e+02          2.215e-02           6.569e+01           -6.389e+01          
 ------------------------------------------------------------------------------------------------
 -------------------------------------------
 STEP OF MOLECULAR DYNAMICS : 3
 -------------------------------------------
 DONE(4.088e+03  SEC) : INIT SCF
 ITER   ETOT(eV)       EDIFF(eV)      DRHO       TIME(s)    
 GE1    -9.450239e+03  0.000000e+00   1.894e-03  1.022e+02  
 GE2    -9.450237e+03  2.373605e-03   1.279e-03  9.674e+01  
 GE3    -9.450240e+03  -3.260551e-03  1.207e-03  9.689e+01  
 GE4    -9.450245e+03  -4.517769e-03  3.677e-04  9.684e+01  
 GE5    -9.450245e+03  -4.432821e-04  2.255e-04  9.684e+01  
 GE6    -9.450245e+03  -1.807280e-04  7.312e-05  9.678e+01  
 GE7    -9.450245e+03  -1.573138e-05  3.341e-05  9.689e+01  
 GE8    -9.450245e+03  -3.850811e-06  1.078e-05  9.686e+01  
 GE9    -9.450245e+03  -4.221001e-07  6.025e-06  9.680e+01  
 GE10   -9.450245e+03  -1.332914e-07  1.747e-06  9.678e+01  
 GE11   -9.450245e+03  -8.278414e-09  5.463e-07  9.678e+01  
 ><><><><><><><><><><><><><><><><><><><><><><
 TOTAL-STRESS (KBAR):
 ><><><><><><><><><><><><><><><><><><><><><><
 -1.138e+02     -6.487e-01     -2.664e+00     
 -6.487e-01     5.171e+01      -3.122e+01     
 -2.664e+00     -3.122e+01     -1.343e+02     
 TOTAL-PRESSURE: -6.545e+01 KBAR
 ------------------------------------------------------------------------------------------------
 Energy              Potential           Kinetic             Temperature         Pressure (KBAR)     
 -3.473e+02          -3.473e+02          2.727e-02           8.086e+01           -6.446e+01          
 ------------------------------------------------------------------------------------------------
 -------------------------------------------
 STEP OF MOLECULAR DYNAMICS : 4
 -------------------------------------------
 DONE(5.252e+03  SEC) : INIT SCF
 ITER   ETOT(eV)       EDIFF(eV)      DRHO       TIME(s)    
 GE1    -9.450345e+03  0.000000e+00   2.406e-03  1.021e+02  
 GE2    -9.450344e+03  1.275812e-03   1.419e-03  9.679e+01  
 GE3    -9.450348e+03  -4.253577e-03  1.335e-03  9.688e+01  
 GE4    -9.450353e+03  -4.880846e-03  3.400e-04  9.695e+01  
 GE5    -9.450353e+03  -2.869457e-04  2.468e-04  9.695e+01  
 GE6    -9.450354e+03  -2.452720e-04  1.004e-04  9.693e+01  
 GE7    -9.450354e+03  -3.391402e-05  3.678e-05  9.700e+01  
 GE8    -9.450354e+03  -4.240917e-06  8.411e-06  9.696e+01  
 GE9    -9.450354e+03  -1.641236e-07  4.763e-06  9.688e+01  
 GE10   -9.450354e+03  -8.087540e-08  2.215e-06  9.685e+01  
 GE11   -9.450354e+03  -1.117400e-08  9.292e-07  9.692e+01  
 ><><><><><><><><><><><><><><><><><><><><><><
 TOTAL-STRESS (KBAR):
 ><><><><><><><><><><><><><><><><><><><><><><
 -1.143e+02     -2.601e-01     -2.645e+00     
 -2.601e-01     5.148e+01      -3.133e+01     
 -2.645e+00     -3.133e+01     -1.354e+02     
 TOTAL-PRESSURE: -6.607e+01 KBAR
 ------------------------------------------------------------------------------------------------
 Energy              Potential           Kinetic             Temperature         Pressure (KBAR)     
 -3.473e+02          -3.473e+02          4.344e-02           1.288e+02           -6.449e+01          
 ------------------------------------------------------------------------------------------------
 -------------------------------------------
 STEP OF MOLECULAR DYNAMICS : 5
 -------------------------------------------
 DONE(6.415e+03  SEC) : INIT SCF
 ITER   ETOT(eV)       EDIFF(eV)      DRHO       TIME(s)    
 GE1    -9.450531e+03  0.000000e+00   2.679e-03  1.022e+02  
 GE2    -9.450527e+03  3.806294e-03   1.652e-03  9.669e+01  
 GE3    -9.450533e+03  -6.042684e-03  1.644e-03  9.681e+01  
 GE4    -9.450541e+03  -8.026158e-03  3.989e-04  9.675e+01  
 GE5    -9.450541e+03  -3.561324e-04  2.904e-04  9.685e+01  
 GE6    -9.450542e+03  -3.434415e-04  1.206e-04  9.677e+01  
 GE7    -9.450542e+03  -4.693690e-05  3.741e-05  9.681e+01  
 GE8    -9.450542e+03  -4.257564e-06  7.662e-06  9.684e+01  
 GE9    -9.450542e+03  -1.249140e-07  4.456e-06  9.689e+01  
 GE10   -9.450542e+03  -6.804169e-08  2.222e-06  9.683e+01  
 GE11   -9.450542e+03  -9.681351e-09  9.463e-07  9.673e+01  
 ><><><><><><><><><><><><><><><><><><><><><><
 TOTAL-STRESS (KBAR):
 ><><><><><><><><><><><><><><><><><><><><><><
 -1.139e+02     2.803e-01      -2.952e+00     
 2.803e-01      4.843e+01      -3.128e+01     
 -2.952e+00     -3.128e+01     -1.359e+02     
 TOTAL-PRESSURE: -6.714e+01 KBAR
 ------------------------------------------------------------------------------------------------
 Energy              Potential           Kinetic             Temperature         Pressure (KBAR)     
 -3.473e+02          -3.473e+02          4.816e-02           1.428e+02           -6.538e+01          
 ------------------------------------------------------------------------------------------------
 -------------------------------------------
 STEP OF MOLECULAR DYNAMICS : 6
 -------------------------------------------
 DONE(7.578e+03  SEC) : INIT SCF
 ITER   ETOT(eV)       EDIFF(eV)      DRHO       TIME(s)    
 GE1    -9.450585e+03  0.000000e+00   2.675e-03  1.021e+02  
 GE2    -9.450585e+03  -1.468553e-04  1.565e-03  9.674e+01  
 GE3    -9.450590e+03  -4.855383e-03  1.336e-03  9.658e+01  
 GE4    -9.450595e+03  -4.593375e-03  3.814e-04  9.672e+01  
 GE5    -9.450595e+03  -3.009739e-04  2.985e-04  9.672e+01  
 GE6    -9.450595e+03  -3.529779e-04  1.192e-04  9.664e+01  
 GE7    -9.450595e+03  -4.871342e-05  4.767e-05  9.661e+01  
 GE8    -9.450596e+03  -7.029521e-06  8.257e-06  9.668e+01  
 GE9    -9.450596e+03  -1.240184e-07  5.712e-06  9.680e+01  
 GE10   -9.450596e+03  -1.221886e-07  2.237e-06  9.684e+01  
 GE11   -9.450596e+03  -1.245784e-08  9.159e-07  9.664e+01  
 ><><><><><><><><><><><><><><><><><><><><><><
 TOTAL-STRESS (KBAR):
 ><><><><><><><><><><><><><><><><><><><><><><
 -1.140e+02     8.095e-01      -2.823e+00     
 8.095e-01      4.754e+01      -3.114e+01     
 -2.823e+00     -3.114e+01     -1.359e+02     
 TOTAL-PRESSURE: -6.744e+01 KBAR
 ------------------------------------------------------------------------------------------------
 Energy              Potential           Kinetic             Temperature         Pressure (KBAR)     
 -3.472e+02          -3.473e+02          6.449e-02           1.912e+02           -6.509e+01          
 ------------------------------------------------------------------------------------------------
 -------------------------------------------
 STEP OF MOLECULAR DYNAMICS : 7
 -------------------------------------------
 DONE(8.740e+03  SEC) : INIT SCF
 ITER   ETOT(eV)       EDIFF(eV)      DRHO       TIME(s)    
 GE1    -9.450589e+03  0.000000e+00   3.311e-03  1.022e+02  
 GE2    -9.450583e+03  5.812759e-03   1.935e-03  9.675e+01  
 GE3    -9.450591e+03  -7.978323e-03  1.936e-03  9.670e+01  
 GE4    -9.450603e+03  -1.220201e-02  5.017e-04  9.665e+01  
 GE5    -9.450604e+03  -7.210547e-04  3.515e-04  9.676e+01  
 GE6    -9.450605e+03  -4.638392e-04  1.318e-04  9.680e+01  
 GE7    -9.450605e+03  -5.587849e-05  4.963e-05  9.684e+01  
 GE8    -9.450605e+03  -7.745717e-06  1.308e-05  9.666e+01  
 GE9    -9.450605e+03  -4.488441e-07  8.428e-06  9.668e+01  
 GE10   -9.450605e+03  -2.956950e-07  2.891e-06  9.678e+01  
 GE11   -9.450605e+03  -3.165658e-08  1.033e-06  9.673e+01  
 GE12   -9.450605e+03  -1.750965e-09  4.671e-07  9.676e+01  
 ><><><><><><><><><><><><><><><><><><><><><><
 TOTAL-STRESS (KBAR):
 ><><><><><><><><><><><><><><><><><><><><><><
 -1.145e+02     1.931e+00      -2.538e+00     
 1.931e+00      4.745e+01      -3.198e+01     
 -2.538e+00     -3.198e+01     -1.352e+02     
 TOTAL-PRESSURE: -6.744e+01 KBAR
 ------------------------------------------------------------------------------------------------
 Energy              Potential           Kinetic             Temperature         Pressure (KBAR)     
 -3.472e+02          -3.473e+02          7.953e-02           2.358e+02           -6.454e+01          
 ------------------------------------------------------------------------------------------------
 -------------------------------------------
 STEP OF MOLECULAR DYNAMICS : 8
 -------------------------------------------
 DONE(9.999e+03  SEC) : INIT SCF
 ITER   ETOT(eV)       EDIFF(eV)      DRHO       TIME(s)    
 GE1    -9.450678e+03  0.000000e+00   3.555e-03  1.021e+02  
 GE2    -9.450679e+03  -7.283307e-04  2.103e-03  9.672e+01  
 GE3    -9.450689e+03  -1.043412e-02  1.697e-03  9.663e+01  
 GE4    -9.450697e+03  -7.675191e-03  4.288e-04  9.665e+01  
 GE5    -9.450697e+03  -2.907230e-04  2.308e-04  9.674e+01  
 GE6    -9.450698e+03  -1.567637e-04  1.483e-04  9.673e+01  
 GE7    -9.450698e+03  -7.239682e-05  5.283e-05  9.665e+01  
 GE8    -9.450698e+03  -1.096392e-05  1.620e-05  9.663e+01  
 GE9    -9.450698e+03  -9.313262e-07  6.048e-06  9.664e+01  
 GE10   -9.450698e+03  -1.080092e-07  2.483e-06  9.672e+01  
 GE11   -9.450698e+03  -2.345241e-08  1.492e-06  9.670e+01  
 GE12   -9.450698e+03  -5.905640e-09  5.207e-07  9.659e+01  
 ><><><><><><><><><><><><><><><><><><><><><><
 TOTAL-STRESS (KBAR):
 ><><><><><><><><><><><><><><><><><><><><><><
 -1.152e+02     2.452e+00      -2.182e+00     
 2.452e+00      4.676e+01      -3.230e+01     
 -2.182e+00     -3.230e+01     -1.358e+02     
 TOTAL-PRESSURE: -6.807e+01 KBAR
 ------------------------------------------------------------------------------------------------
 Energy              Potential           Kinetic             Temperature         Pressure (KBAR)     
 -3.472e+02          -3.473e+02          7.628e-02           2.262e+02           -6.529e+01          
 ------------------------------------------------------------------------------------------------
 -------------------------------------------
 STEP OF MOLECULAR DYNAMICS : 9
 -------------------------------------------
 DONE(1.126e+04  SEC) : INIT SCF
 ITER   ETOT(eV)       EDIFF(eV)      DRHO       TIME(s)    
 GE1    -9.450727e+03  0.000000e+00   3.417e-03  1.021e+02  
 GE2    -9.450721e+03  5.557821e-03   2.240e-03  9.664e+01  
 GE3    -9.450735e+03  -1.430693e-02  2.009e-03  9.662e+01  
 GE4    -9.450746e+03  -1.010997e-02  3.942e-04  9.662e+01  
 GE5    -9.450746e+03  -2.765494e-04  2.079e-04  9.669e+01  
 GE6    -9.450746e+03  -1.173222e-04  1.012e-04  9.667e+01  
 GE7    -9.450746e+03  -2.558970e-05  2.692e-05  9.652e+01  
 GE8    -9.450746e+03  -2.333133e-06  1.407e-05  9.659e+01  
 GE9    -9.450746e+03  -7.893217e-07  6.639e-06  9.669e+01  
 GE10   -9.450746e+03  -1.550037e-07  1.850e-06  9.663e+01  
 GE11   -9.450746e+03  -1.219952e-08  1.057e-06  9.660e+01  
 GE12   -9.450746e+03  -2.674398e-09  3.610e-07  9.662e+01  
 ><><><><><><><><><><><><><><><><><><><><><><
 TOTAL-STRESS (KBAR):
 ><><><><><><><><><><><><><><><><><><><><><><
 -1.155e+02     2.226e+00      -2.438e+00     
 2.226e+00      4.523e+01      -3.119e+01     
 -2.438e+00     -3.119e+01     -1.353e+02     
 TOTAL-PRESSURE: -6.852e+01 KBAR
 ------------------------------------------------------------------------------------------------
 Energy              Potential           Kinetic             Temperature         Pressure (KBAR)     
 -3.472e+02          -3.473e+02          7.849e-02           2.327e+02           -6.567e+01          
 ------------------------------------------------------------------------------------------------
 -------------------------------------------
 STEP OF MOLECULAR DYNAMICS : 10
 -------------------------------------------
 DONE(1.252e+04  SEC) : INIT SCF
 ITER   ETOT(eV)       EDIFF(eV)      DRHO       TIME(s)    
 GE1    -9.450731e+03  0.000000e+00   3.425e-03  1.022e+02  
 GE2    -9.450726e+03  4.965956e-03   2.122e-03  9.669e+01  
 GE3    -9.450738e+03  -1.118034e-02  1.930e-03  9.677e+01  
 GE4    -9.450748e+03  -1.042567e-02  5.358e-04  9.674e+01  
 GE5    -9.450749e+03  -7.612542e-04  4.337e-04  9.677e+01  
 GE6    -9.450750e+03  -6.721809e-04  1.448e-04  9.667e+01  
 GE7    -9.450750e+03  -6.502084e-05  6.434e-05  9.671e+01  
 GE8    -9.450750e+03  -1.276937e-05  1.302e-05  9.678e+01  
 GE9    -9.450750e+03  -4.188116e-07  8.754e-06  9.672e+01  
 GE10   -9.450750e+03  -2.863988e-07  3.616e-06  9.678e+01  
 GE11   -9.450750e+03  -5.163645e-08  1.276e-06  9.667e+01  
 GE12   -9.450750e+03  -3.310128e-09  4.336e-07  9.692e+01  
 ><><><><><><><><><><><><><><><><><><><><><><
 TOTAL-STRESS (KBAR):
 ><><><><><><><><><><><><><><><><><><><><><><
 -1.166e+02     1.995e+00      -2.049e+00     
 1.995e+00      4.560e+01      -3.176e+01     
 -2.049e+00     -3.176e+01     -1.348e+02     
 TOTAL-PRESSURE: -6.858e+01 KBAR
 ------------------------------------------------------------------------------------------------
 Energy              Potential           Kinetic             Temperature         Pressure (KBAR)     
 -3.472e+02          -3.473e+02          1.025e-01           3.040e+02           -6.485e+01          
 ------------------------------------------------------------------------------------------------

  |CLASS_NAME---------|NAME---------------|TIME(Sec)-----|CALLS----|AVG------|PER%-------
                       total               13774          27        5.1e+02   1e+02     %
   Driver              driver_line         13774          1         1.4e+04   1e+02     %
   PW_Basis            setup_struc_factor  1.2586         11        0.11      0.0091    %
   ORB_control         read_orb_first      0.17758        1         0.18      0.0013    %
   LCAO_Orbitals       Read_Orbitals       0.17758        1         0.18      0.0013    %
   NOrbital_Lm         extra_uniform       0.10459        16        0.0065    0.00076   %
   ORB_control         set_orb_tables      6.7084         1         6.7       0.049     %
   ORB_gen_tables      gen_tables          6.7084         1         6.7       0.049     %
   ORB_table_phi       init_Table          5.1945         1         5.2       0.038     %
   ORB_table_phi       cal_ST_Phi12_R      5.166          558       0.0093    0.038     %
   ORB_table_beta      init_Table_Beta     1.3208         1         1.3       0.0096    %
   ORB_table_beta      VNL_PhiBeta_R       1.3145         168       0.0078    0.0095    %
   ppcell_vl           init_vloc           0.2711         1         0.27      0.002     %
   Run_MD              md_line             13766          1         1.4e+04   1e+02     %
   Langevin            setup               2043.8         1         2e+03     15        %
   MD_func             force_stress        13766          11        1.3e+03   1e+02     %
   ESolver_KS_LCAO     Run                 12769          11        1.2e+03   93        %
   ESolver_KS_LCAO     beforescf           25.812         11        2.3       0.19      %
   ESolver_KS_LCAO     beforesolver        8.9364         11        0.81      0.065     %
   ESolver_KS_LCAO     set_matrix_grid     5.5175         11        0.5       0.04      %
   Grid_Technique      init                3.1249         11        0.28      0.023     %
   Grid_BigCell        grid_expansion_index0.92262        22        0.042     0.0067    %
   Record_adj          for_2d              2.0377         11        0.19      0.015     %
   Grid_Driver         Find_atom           16.56          709848    2.3e-05   0.12      %
   Charge              atomic_rho          14.634         21        0.7       0.11      %
   PW_Basis            recip2real          2.797          775       0.0036    0.02      %
   PW_Basis            gathers_scatterp    1.414          775       0.0018    0.01      %
   Potential           init_pot            1.0035         11        0.091     0.0073    %
   Potential           update_from_charge  11.947         142       0.084     0.087     %
   Potential           cal_v_eff           11.894         142       0.084     0.086     %
   H_Hartree_pw        v_hartree           1.3278         142       0.0094    0.0096    %
   PW_Basis            real2recip          3.8662         1180      0.0033    0.028     %
   PW_Basis            gatherp_scatters    1.5786         1180      0.0013    0.011     %
   PotXC               cal_v_eff           10.466         142       0.074     0.076     %
   XC_Functional       v_xc                10.402         142       0.073     0.076     %
   HSolverLCAO         solve               12720          131       97        92        %
   HamiltLCAO          updateHk            4465.8         4716      0.95      32        %
   OperatorLCAO        init                3829.6         9432      0.41      28        %
   Veff                contributeHk        3826.9         4716      0.81      28        %
   Gint_interface      cal_gint            5993.8         273       22        44        %
   Gint_interface      cal_gint_vlocal     2890.8         131       22        21        %
   Gint_k              folding_vl_k        936.12         4716      0.2       6.8       %
   Gint_k              Distri              678.72         4716      0.14      4.9       %
   Overlap             contributeHR        4.3674         11        0.4       0.032     %
   LCAO_gen_fixedH     calculate_S_no      4.3674         11        0.4       0.032     %
   Ekinetic<OperatorLCAO>contributeHR        4.4363         11        0.4       0.032     %
   Nonlocal<OperatorLCAO>contributeHR        45.558         11        4.1       0.33      %
   LCAO_gen_fixedH     build_Nonlocal_mu_new143.39         22        6.5       1         %
   ORB_gen_tables      snap_psibeta_half   3.2556         1191588   2.7e-06   0.024     %
   OperatorLCAO        folding_fixed       581.78         4716      0.12      4.2       %
   LCAO_nnr            folding_fixedH      574.23         4716      0.12      4.2       %
   HSolverLCAO         hamiltSolvePsiK     1958.3         4716      0.42      14        %
   DiagoElpa           elpa_solve          1939           4716      0.41      14        %
   ElecStateLCAO       psiToRho            6295.8         131       48        46        %
   elecstate           cal_dm              258.4          142       1.8       1.9       %
   psiMulPsiMpi        pdgemm              252.45         5112      0.049     1.8       %
    Local_Orbital_wfc  wfc_2d_to_grid      33.387         4716      0.0071    0.24      %
   LCAO_Charge         cal_dk_k            3397.6         131       26        25        %
   Record_adj          for_grid            0.6658         131       0.0051    0.0048    %
   Gint_interface      cal_gint_rho        2587.6         131       20        19        %
   Charge              mix_rho             1.6571         120       0.014     0.012     %
   Force_Stress_LCAO   getForceStress      996.91         11        91        7.2       %
   Forces              cal_force_loc       0.97759        11        0.089     0.0071    %
   Forces              cal_force_ew        0.94735        11        0.086     0.0069    %
   Forces              cal_force_scc       8.1875         11        0.74      0.059     %
   Stress_Func         stress_loc          7.039          11        0.64      0.051     %
   Stress_Func         stress_ewa          0.42864        11        0.039     0.0031    %
   Stress_Func         stress_gga          0.48548        11        0.044     0.0035    %
   Force_LCAO_k        ftable_k            978.77         11        89        7.1       %
   Force_LCAO_k        allocate_k          127.35         11        12        0.92      %
   Force_LCAO_k        cal_foverlap_k      34.062         11        3.1       0.25      %
   Force_LCAO_k        cal_edm_2d          33.122         11        3         0.24      %
   Local_Orbital_Chargecal_dm_R            11.72          22        0.53      0.085     %
   Force_LCAO_k        cal_ftvnl_dphi_k    0.29834        11        0.027     0.0022    %
   Force_LCAO_k        cal_fvl_dphi_k      515.46         11        47        3.7       %
   Gint_interface      cal_gint_force      515.46         11        47        3.7       %
   Force_LCAO_k        cal_fvnl_dbeta_k_new261.07         11        24        1.9       %
 ----------------------------------------------------------------------------------------

 START  Time  : Mon May 22 14:16:30 2023
 FINISH Time  : Mon May 22 18:06:05 2023
 TOTAL  Time  : 1.4e+04
 SEE INFORMATION IN : OUT.ABACUS/
