                                                                                     
                             WELCOME TO ABACUS v3.0                                  
                                                                                     
               'Atomic-orbital Based Ab-initio Computation at UStc'                  
                                                                                     
                     Website: http://abacus.ustc.edu.cn/                             
                                                                                     
    Version: Parallel, in development
    Processor Number is 16
    Start Time is Mon May 22 14:16:28 2023
                                                                                     
 ------------------------------------------------------------------------------------

 READING GENERAL INFORMATION
                           global_out_dir = OUT.ABACUS/
                           global_in_card = INPUT
                               pseudo_dir = 
                              orbital_dir = 
                                    DRANK = 1
                                    DSIZE = 16
                                   DCOLOR = 1
                                    GRANK = 1
                                    GSIZE = 1
 The esolver type has been set to : ksdft_lcao




 >>>>>>>>>>>>>>>>>>>>>>>>>>>>>>>>>>>>>>>>>>>>>>>>>>>>>>>>>>>>>>>>>>>>>>
 |                                                                    |
 | Reading atom information in unitcell:                              |
 | From the input file and the structure file we know the number of   |
 | different elments in this unitcell, then we list the detail        |
 | information for each element, especially the zeta and polar atomic |
 | orbital number for each element. The total atom number is counted. |
 | We calculate the nearest atom distance for each atom and show the  |
 | Cartesian and Direct coordinates for each atom. We list the file   |
 | address for atomic orbitals. The volume and the lattice vectors    |
 | in real and reciprocal space is also shown.                        |
 |                                                                    |
 <<<<<<<<<<<<<<<<<<<<<<<<<<<<<<<<<<<<<<<<<<<<<<<<<<<<<<<<<<<<<<<<<<<<<<




 READING UNITCELL INFORMATION
                                    ntype = 2
                 atom label for species 1 = Si
                 atom label for species 2 = C
                  lattice constant (Bohr) = 1.88973
              lattice constant (Angstrom) = 1

 READING ATOM TYPE 1
                               atom label = Si
                      L=0, number of zeta = 3
                      L=1, number of zeta = 3
                      L=2, number of zeta = 2
             number of atom for this type = 36
                      start magnetization = FALSE
                      start magnetization = FALSE
                      start magnetization = FALSE
                      start magnetization = FALSE
                      start magnetization = FALSE
                      start magnetization = FALSE
                      start magnetization = FALSE
                      start magnetization = FALSE
                      start magnetization = FALSE
                      start magnetization = FALSE
                      start magnetization = FALSE
                      start magnetization = FALSE
                      start magnetization = FALSE
                      start magnetization = FALSE
                      start magnetization = FALSE
                      start magnetization = FALSE
                      start magnetization = FALSE
                      start magnetization = FALSE
                      start magnetization = FALSE
                      start magnetization = FALSE
                      start magnetization = FALSE
                      start magnetization = FALSE
                      start magnetization = FALSE
                      start magnetization = FALSE
                      start magnetization = FALSE
                      start magnetization = FALSE
                      start magnetization = FALSE
                      start magnetization = FALSE
                      start magnetization = FALSE
                      start magnetization = FALSE
                      start magnetization = FALSE
                      start magnetization = FALSE
                      start magnetization = FALSE
                      start magnetization = FALSE
                      start magnetization = FALSE
                      start magnetization = FALSE

 READING ATOM TYPE 2
                               atom label = C
                      L=0, number of zeta = 3
                      L=1, number of zeta = 3
                      L=2, number of zeta = 2
             number of atom for this type = 36
                      start magnetization = FALSE
                      start magnetization = FALSE
                      start magnetization = FALSE
                      start magnetization = FALSE
                      start magnetization = FALSE
                      start magnetization = FALSE
                      start magnetization = FALSE
                      start magnetization = FALSE
                      start magnetization = FALSE
                      start magnetization = FALSE
                      start magnetization = FALSE
                      start magnetization = FALSE
                      start magnetization = FALSE
                      start magnetization = FALSE
                      start magnetization = FALSE
                      start magnetization = FALSE
                      start magnetization = FALSE
                      start magnetization = FALSE
                      start magnetization = FALSE
                      start magnetization = FALSE
                      start magnetization = FALSE
                      start magnetization = FALSE
                      start magnetization = FALSE
                      start magnetization = FALSE
                      start magnetization = FALSE
                      start magnetization = FALSE
                      start magnetization = FALSE
                      start magnetization = FALSE
                      start magnetization = FALSE
                      start magnetization = FALSE
                      start magnetization = FALSE
                      start magnetization = FALSE
                      start magnetization = FALSE
                      start magnetization = FALSE
                      start magnetization = FALSE
                      start magnetization = FALSE

                        TOTAL ATOM NUMBER = 72

 CARTESIAN COORDINATES ( UNIT = 1.88973 Bohr ).
         atom                   x                   y                   z                 mag                  vx                  vy                  vz
     tauc_Si1     0.0164296266533       1.80909332327       2.53140524961                   0                   0                   0                   0
     tauc_Si2       3.14028458722       7.15340790727       2.48514090211                   0                   0                   0                   0
     tauc_Si3      -3.06036579035       7.18844436714        2.5074156877                   0                   0                   0                   0
     tauc_Si4       4.69365712725       6.28194271238       5.03015332924                   0                   0                   0                   0
     tauc_Si5       1.56634812666       0.91321520077       5.06992635636                   0                   0                   0                   0
     tauc_Si6       7.78602222388      0.906569578009       5.04026047043                   0                   0                   0                   0
     tauc_Si7     0.0433352370601       1.81760184057       7.61496314641                   0                   0                   0                   0
     tauc_Si8       3.16809718645        7.1961963295       7.58590126012                   0                   0                   0                   0
     tauc_Si9      -3.03324789132       7.19780040091       7.60103070234                   0                   0                   0                   0
    tauc_Si10       4.70837923962       6.29687027004       10.1086864299                   0                   0                   0                   0
    tauc_Si11       1.59881217596       0.94324780144       10.1523063229                   0                   0                   0                   0
    tauc_Si12       7.79207619877      0.922624821094       10.1391840533                   0                   0                   0                   0
    tauc_Si13      -1.53780881004       4.49099688787        2.5289122587                   0                   0                   0                   0
    tauc_Si14       1.57385369967       4.47610670111        2.5144560555                   0                   0                   0                   0
    tauc_Si15     0.0465043999004       7.16904691156       2.50545338054                   0                   0                   0                   0
    tauc_Si16       6.23058215112       3.58489897582       5.05106352191                   0                   0                   0                   0
    tauc_Si17       3.12298128014       3.59459195103       5.04939320699                   0                   0                   0                   0
    tauc_Si18       4.68110649725      0.909303496563       5.07362590501                   0                   0                   0                   0
    tauc_Si19      -1.50551652708       4.51805285889       7.59924191195                   0                   0                   0                   0
    tauc_Si20        1.5825605026       4.50419408174       7.61824813014                   0                   0                   0                   0
    tauc_Si21     0.0580223445789       7.20540646174       7.57976184078                   0                   0                   0                   0
    tauc_Si22       6.24818135698       3.63145701096       10.1136106322                   0                   0                   0                   0
    tauc_Si23       3.14895369648       3.61856316321       10.1287936372                   0                   0                   0                   0
    tauc_Si24       4.68608297676       0.92417361516       10.1448544994                   0                   0                   0                   0
    tauc_Si25       3.11672508244        1.7844376843       2.50325629624                   0                   0                   0                   0
    tauc_Si26       6.21422299532       1.77908253298       2.50847569877                   0                   0                   0                   0
    tauc_Si27       4.66296403263       4.46552802019       2.50769573975                   0                   0                   0                   0
    tauc_Si28       1.59418312145       6.28224090874       5.04332341589                   0                   0                   0                   0
    tauc_Si29      -1.51533589759       6.29441746747       5.03635679364                   0                   0                   0                   0
    tauc_Si30     0.0364787794253       3.59472066128       5.06587571933                   0                   0                   0                   0
    tauc_Si31       3.13242730003       1.81042335435       7.60637035179                   0                   0                   0                   0
    tauc_Si32        6.2362798214       1.81145861192         7.579699243                   0                   0                   0                   0
    tauc_Si33        4.6987937673       4.50680689709       7.57028006798                   0                   0                   0                   0
    tauc_Si34       1.60541220602       6.30223578607       10.1358817707                   0                   0                   0                   0
    tauc_Si35      -1.49236251269       6.31704886941        10.130251628                   0                   0                   0                   0
    tauc_Si36     0.0563466752808        3.6299434469       10.1408165601                   0                   0                   0                   0
      tauc_C1     0.0166566285151       1.81067098976       4.42951255842                   0                   0                   0                   0
      tauc_C2       3.14170060789       7.16867825968        4.4034479997                   0                   0                   0                   0
      tauc_C3      -3.06366679707       7.17973548228       4.41848849163                   0                   0                   0                   0
      tauc_C4       4.69391529778       6.28643558209       6.92857920478                   0                   0                   0                   0
      tauc_C5       1.56394317675      0.946934982318        6.9836363489                   0                   0                   0                   0
      tauc_C6       7.78715736253      0.910051818035       6.96488418563                   0                   0                   0                   0
      tauc_C7     0.0458254884748        1.8530413292       9.53043916315                   0                   0                   0                   0
      tauc_C8       3.15412249895       7.19845352653       9.49394644473                   0                   0                   0                   0
      tauc_C9      -3.02640410184       7.21709916716       9.49284491709                   0                   0                   0                   0
     tauc_C10       4.69532012216       6.25072759419       1.85519986723                   0                   0                   0                   0
     tauc_C11        1.5683911816      0.889497517807       1.90690275989                   0                   0                   0                   0
     tauc_C12       7.77234110616      0.871906377645       1.87705860875                   0                   0                   0                   0
     tauc_C13       -1.5250928089        4.5177550356       4.44161299759                   0                   0                   0                   0
     tauc_C14       1.59001380511       4.49933802836       4.43178727473                   0                   0                   0                   0
     tauc_C15     0.0479115481032       7.19494448911       4.41538188208                   0                   0                   0                   0
     tauc_C16       6.23782475062       3.59188823472       6.95555631338                   0                   0                   0                   0
     tauc_C17       3.12940527544        3.6074311898       6.96003512366                   0                   0                   0                   0
     tauc_C18         4.685490455       0.91501312074       6.96762186749                   0                   0                   0                   0
     tauc_C19      -1.50319867135        4.5278209821       9.51696277774                   0                   0                   0                   0
     tauc_C20       1.61421834775       4.52886162117       9.51266234024                   0                   0                   0                   0
     tauc_C21     0.0606458917958       7.21706574372       9.50139716546                   0                   0                   0                   0
     tauc_C22       6.22550790174       3.57072841859        1.8720446791                   0                   0                   0                   0
     tauc_C23       3.11034130279       3.57257426232       1.88563548551                   0                   0                   0                   0
     tauc_C24       4.65726709479      0.887179290662       1.88695027666                   0                   0                   0                   0
     tauc_C25        3.1122359708       1.80519097804       4.43960931448                   0                   0                   0                   0
     tauc_C26       6.22871483167       1.79738617609       4.42342232591                   0                   0                   0                   0
     tauc_C27       4.67368765037       4.46685376438       4.42593213323                   0                   0                   0                   0
     tauc_C28       1.59369631544       6.30531066891       6.94440274039                   0                   0                   0                   0
     tauc_C29      -1.50820708423        6.3016498549       6.97724306639                   0                   0                   0                   0
     tauc_C30     0.0336538122788       3.60918074387       6.97282256665                   0                   0                   0                   0
     tauc_C31       3.15393098972       1.82954423556       9.50352581688                   0                   0                   0                   0
     tauc_C32       6.24819156705       1.82537332433       9.51173454073                   0                   0                   0                   0
     tauc_C33       4.69485693719       4.50411774234       9.49336173637                   0                   0                   0                   0
     tauc_C34       1.58174662649       6.27511436864       1.87318217275                   0                   0                   0                   0
     tauc_C35      -1.52401180817       6.26855398564         1.886965027                   0                   0                   0                   0
     tauc_C36     0.0123231384053       3.58691455113       1.89426964482                   0                   0                   0                   0


 READING ORBITAL FILE NAMES FOR LCAO
 orbital file: Si_gga_9au_100Ry_3s3p2d.orb
 orbital file: C_gga_9au_100Ry_3s3p2d.orb

                          Volume (Bohr^3) = 5261.8274891
                             Volume (A^3) = 779.721456017

 Lattice vectors: (Cartesian coordinate: in unit of a_0)
       +9.55494464348                  +0                  +0
       -4.71821567139      +7.97670595379                  +0
     +0.0790463246278     +0.114009153146      +10.2302970824
 Reciprocal vectors: (Cartesian coordinate: in unit of 2 pi/a_0)
      +0.104657853846    +0.0619050431355   -0.00149854496989
                   +0     +0.125365032357    -0.0013971012824
                   +0                  -0    +0.0977488719976




 >>>>>>>>>>>>>>>>>>>>>>>>>>>>>>>>>>>>>>>>>>>>>>>>>>>>>>>>>>>>>>>>>>>>>>
 |                                                                    |
 | Reading pseudopotentials files:                                    |
 | The pseudopotential file is in UPF format. The 'NC' indicates that |
 | the type of pseudopotential is 'norm conserving'. Functional of    |
 | exchange and correlation is decided by 4 given parameters in UPF   |
 | file.  We also read in the 'core correction' if there exists.      |
 | Also we can read the valence electrons number and the maximal      |
 | angular momentum used in this pseudopotential. We also read in the |
 | trail wave function, trail atomic density and local-pseudopotential|
 | on logrithmic grid. The non-local pseudopotential projector is also|
 | read in if there is any.                                           |
 |                                                                    |
 <<<<<<<<<<<<<<<<<<<<<<<<<<<<<<<<<<<<<<<<<<<<<<<<<<<<<<<<<<<<<<<<<<<<<<




                PAO radial cut off (Bohr) = 15

 Read in pseudopotential file is Si_ONCV_PBE-1.0.upf
                     pseudopotential type = NC
          exchange-correlation functional = PBE
                 nonlocal core correction = 0
                        valence electrons = 4
                                     lmax = 1
                           number of zeta = 0
                     number of projectors = 4
                           L of projector = 0
                           L of projector = 0
                           L of projector = 1
                           L of projector = 1
                PAO radial cut off (Bohr) = 15

 Read in pseudopotential file is C_ONCV_PBE-1.0.upf
                     pseudopotential type = NC
          exchange-correlation functional = PBE
                 nonlocal core correction = 0
                        valence electrons = 4
                                     lmax = 1
                           number of zeta = 0
                     number of projectors = 4
                           L of projector = 0
                           L of projector = 0
                           L of projector = 1
                           L of projector = 1
     initial pseudo atomic orbital number = 0
                                   NLOCAL = 1584




 >>>>>>>>>>>>>>>>>>>>>>>>>>>>>>>>>>>>>>>>>>>>>>>>>>>>>>>>>>>>>>>>>>>>>>
 |                                                                    |
 | Setup plane waves of charge/potential:                             |
 | Use the energy cutoff and the lattice vectors to generate the      |
 | dimensions of FFT grid. The number of FFT grid on each processor   |
 | is 'nrxx'. The number of plane wave basis in reciprocal space is   |
 | different for charege/potential and wave functions. We also set    |
 | the 'sticks' for the parallel of FFT. The number of plane waves    |
 | is 'npw' in each processor.                                        |
 <<<<<<<<<<<<<<<<<<<<<<<<<<<<<<<<<<<<<<<<<<<<<<<<<<<<<<<<<<<<<<<<<<<<<<





 SETUP THE PLANE WAVE BASIS
 energy cutoff for charge/potential (unit:Ry) = 400
          [fft grid for charge/potential] = 120, 120, 128
                      [fft grid division] = 2, 2, 2
      [big fft grid for charge/potential] = 60, 60, 64
                                     nbxx = 14400
                                     nrxx = 115200

 SETUP PLANE WAVES FOR CHARGE/POTENTIAL
                    number of plane waves = 710811
                         number of sticks = 8661

 PARALLEL PW FOR CHARGE/POTENTIAL
     PROC   COLUMNS(POT)             PW
        1            541          44425
        2            541          44425
        3            541          44425
        4            541          44425
        5            542          44428
        6            542          44428
        7            542          44428
        8            542          44427
        9            541          44425
       10            541          44425
       11            541          44425
       12            541          44425
       13            542          44427
       14            541          44424
       15            541          44425
       16            541          44424
 --------------- sum -------------------
       16           8661         710811
                            number of |g| = 43492
                                  max |g| = 36.1819043994
                                  min |g| = 0.0149804468944

 SETUP THE ELECTRONS NUMBER
            electron number of element Si = 4
      total electron number of element Si = 144
             electron number of element C = 4
       total electron number of element C = 144
            AUTOSET number of electrons:  = 288
 DONE : SETUP UNITCELL Time : 0.111055130719 (SEC)





 >>>>>>>>>>>>>>>>>>>>>>>>>>>>>>>>>>>>>>>>>>>>>>>>>>>>>>>>>>>>>>>>>>>>>>
 |                                                                    |
 | Setup K-points                                                     |
 | We setup the k-points according to input parameters.               |
 | The reduced k-points are set according to symmetry operations.     |
 | We treat the spin as another set of k-points.                      |
 |                                                                    |
 <<<<<<<<<<<<<<<<<<<<<<<<<<<<<<<<<<<<<<<<<<<<<<<<<<<<<<<<<<<<<<<<<<<<<<





 SETUP K-POINTS
                                    nspin = 1
                   Input type of k points = Monkhorst-Pack(Gamma)
                                   nkstot = 64
                               nkstot_ibz = 36
      IBZ             DirectX             DirectY             DirectZ              Weight    ibz2bz
        1                   0                   0                   0            0.015625         0
        2                0.75                   0                   0             0.03125         1
        3                 0.5                   0                   0            0.015625         2
        4                   0                0.75                   0             0.03125         4
        5                0.75                0.75                   0             0.03125         5
        6                 0.5                0.75                   0             0.03125         6
        7                0.25                0.75                   0             0.03125         7
        8                   0                 0.5                   0            0.015625         8
        9                0.75                 0.5                   0             0.03125         9
       10                 0.5                 0.5                   0            0.015625        10
       11                   0                   0                0.75             0.03125        16
       12                0.75                   0                0.75             0.03125        17
       13                 0.5                   0                0.75             0.03125        18
       14                0.25                   0                0.75             0.03125        19
       15                   0                0.75                0.75             0.03125        20
       16                0.75                0.75                0.75             0.03125        21
       17                 0.5                0.75                0.75             0.03125        22
       18                0.25                0.75                0.75             0.03125        23
       19                   0                 0.5                0.75             0.03125        24
       20                0.75                 0.5                0.75             0.03125        25
       21                 0.5                 0.5                0.75             0.03125        26
       22                0.25                 0.5                0.75             0.03125        27
       23                   0                0.25                0.75             0.03125        28
       24                0.75                0.25                0.75             0.03125        29
       25                 0.5                0.25                0.75             0.03125        30
       26                0.25                0.25                0.75             0.03125        31
       27                   0                   0                 0.5            0.015625        32
       28                0.75                   0                 0.5             0.03125        33
       29                 0.5                   0                 0.5            0.015625        34
       30                   0                0.75                 0.5             0.03125        36
       31                0.75                0.75                 0.5             0.03125        37
       32                 0.5                0.75                 0.5             0.03125        38
       33                0.25                0.75                 0.5             0.03125        39
       34                   0                 0.5                 0.5            0.015625        40
       35                0.75                 0.5                 0.5             0.03125        41
       36                 0.5                 0.5                 0.5            0.015625        42
                               nkstot now = 36

  KPOINTS            DIRECT_X            DIRECT_Y            DIRECT_Z              WEIGHT
        1                   0                   0                   0            0.015625
        2                0.75                   0                   0             0.03125
        3                 0.5                   0                   0            0.015625
        4                   0                0.75                   0             0.03125
        5                0.75                0.75                   0             0.03125
        6                 0.5                0.75                   0             0.03125
        7                0.25                0.75                   0             0.03125
        8                   0                 0.5                   0            0.015625
        9                0.75                 0.5                   0             0.03125
       10                 0.5                 0.5                   0            0.015625
       11                   0                   0                0.75             0.03125
       12                0.75                   0                0.75             0.03125
       13                 0.5                   0                0.75             0.03125
       14                0.25                   0                0.75             0.03125
       15                   0                0.75                0.75             0.03125
       16                0.75                0.75                0.75             0.03125
       17                 0.5                0.75                0.75             0.03125
       18                0.25                0.75                0.75             0.03125
       19                   0                 0.5                0.75             0.03125
       20                0.75                 0.5                0.75             0.03125
       21                 0.5                 0.5                0.75             0.03125
       22                0.25                 0.5                0.75             0.03125
       23                   0                0.25                0.75             0.03125
       24                0.75                0.25                0.75             0.03125
       25                 0.5                0.25                0.75             0.03125
       26                0.25                0.25                0.75             0.03125
       27                   0                   0                 0.5            0.015625
       28                0.75                   0                 0.5             0.03125
       29                 0.5                   0                 0.5            0.015625
       30                   0                0.75                 0.5             0.03125
       31                0.75                0.75                 0.5             0.03125
       32                 0.5                0.75                 0.5             0.03125
       33                0.25                0.75                 0.5             0.03125
       34                   0                 0.5                 0.5            0.015625
       35                0.75                 0.5                 0.5             0.03125
       36                 0.5                 0.5                 0.5            0.015625

           k-point number in this process = 36
       minimum distributed K point number = 36

  KPOINTS         CARTESIAN_X         CARTESIAN_Y         CARTESIAN_Z              WEIGHT
        1                   0                   0                   0             0.03125
        2     0.0784933903842     0.0464287823516   -0.00112390872742              0.0625
        3     0.0523289269228     0.0309525215677  -0.000749272484946             0.03125
        4                   0     0.0940237742678    -0.0010478259618              0.0625
        5     0.0784933903842      0.140452556619   -0.00217173468922              0.0625
        6     0.0523289269228      0.124976295836   -0.00179709844675              0.0625
        7     0.0261644634614      0.109500035052   -0.00142246220428              0.0625
        8                   0     0.0626825161785  -0.000698550641202             0.03125
        9     0.0784933903842       0.10911129853   -0.00182245936862              0.0625
       10     0.0523289269228     0.0936350377463   -0.00144782312615             0.03125
       11                   0                   0     0.0733116539982              0.0625
       12     0.0784933903842     0.0464287823516     0.0721877452707              0.0625
       13     0.0523289269228     0.0309525215677     0.0725623815132              0.0625
       14     0.0261644634614     0.0154762607839     0.0729370177557              0.0625
       15                   0     0.0940237742678     0.0722638280364              0.0625
       16     0.0784933903842      0.140452556619     0.0711399193089              0.0625
       17     0.0523289269228      0.124976295836     0.0715145555514              0.0625
       18     0.0261644634614      0.109500035052     0.0718891917939              0.0625
       19                   0     0.0626825161785      0.072613103357              0.0625
       20     0.0784933903842       0.10911129853     0.0714891946295              0.0625
       21     0.0523289269228     0.0936350377463      0.071863830872              0.0625
       22     0.0261644634614     0.0781587769624     0.0722384671145              0.0625
       23                   0     0.0313412580893     0.0729623786776              0.0625
       24     0.0784933903842     0.0777700404409     0.0718384699501              0.0625
       25     0.0523289269228      0.062293779657     0.0722131061926              0.0625
       26     0.0261644634614     0.0468175188731     0.0725877424351              0.0625
       27                   0                   0     0.0488744359988             0.03125
       28     0.0784933903842     0.0464287823516     0.0477505272714              0.0625
       29     0.0523289269228     0.0309525215677     0.0481251635138             0.03125
       30                   0     0.0940237742678      0.047826610037              0.0625
       31     0.0784933903842      0.140452556619     0.0467027013096              0.0625
       32     0.0523289269228      0.124976295836      0.047077337552              0.0625
       33     0.0261644634614      0.109500035052     0.0474519737945              0.0625
       34                   0     0.0626825161785     0.0481758853576             0.03125
       35     0.0784933903842       0.10911129853     0.0470519766302              0.0625
       36     0.0523289269228     0.0936350377463     0.0474266128726             0.03125

  KPOINTS            DIRECT_X            DIRECT_Y            DIRECT_Z              WEIGHT
        1                   0                   0                   0             0.03125
        2                0.75                   0                   0              0.0625
        3                 0.5                   0                   0             0.03125
        4                   0                0.75                   0              0.0625
        5                0.75                0.75                   0              0.0625
        6                 0.5                0.75                   0              0.0625
        7                0.25                0.75                   0              0.0625
        8                   0                 0.5                   0             0.03125
        9                0.75                 0.5                   0              0.0625
       10                 0.5                 0.5                   0             0.03125
       11                   0                   0                0.75              0.0625
       12                0.75                   0                0.75              0.0625
       13                 0.5                   0                0.75              0.0625
       14                0.25                   0                0.75              0.0625
       15                   0                0.75                0.75              0.0625
       16                0.75                0.75                0.75              0.0625
       17                 0.5                0.75                0.75              0.0625
       18                0.25                0.75                0.75              0.0625
       19                   0                 0.5                0.75              0.0625
       20                0.75                 0.5                0.75              0.0625
       21                 0.5                 0.5                0.75              0.0625
       22                0.25                 0.5                0.75              0.0625
       23                   0                0.25                0.75              0.0625
       24                0.75                0.25                0.75              0.0625
       25                 0.5                0.25                0.75              0.0625
       26                0.25                0.25                0.75              0.0625
       27                   0                   0                 0.5             0.03125
       28                0.75                   0                 0.5              0.0625
       29                 0.5                   0                 0.5             0.03125
       30                   0                0.75                 0.5              0.0625
       31                0.75                0.75                 0.5              0.0625
       32                 0.5                0.75                 0.5              0.0625
       33                0.25                0.75                 0.5              0.0625
       34                   0                 0.5                 0.5             0.03125
       35                0.75                 0.5                 0.5              0.0625
       36                 0.5                 0.5                 0.5             0.03125
 DONE : INIT K-POINTS Time : 0.120322567066 (SEC)

                           occupied bands = 144
                                   NLOCAL = 1584
                                   NBANDS = 173
                                   NBANDS = 173




 >>>>>>>>>>>>>>>>>>>>>>>>>>>>>>>>>>>>>>>>>>>>>>>>>>>>>>>>>>>>>>>>>>>>>>
 |                                                                    |
 | Setup numerical orbitals:                                          |
 | This part setup: numerical atomic orbitals, non-local projectors   |
 | and neutral potential (1D). The atomic orbitals information        |
 | including the radius, angular momentum and zeta number.            |
 | The neutral potential is the sum of local part of pseudopotential  |
 | and potential given by atomic charge, they will cancel out beyond  |
 | a certain radius cutoff, because the Z/r character.                |
 |                                                                    |
 <<<<<<<<<<<<<<<<<<<<<<<<<<<<<<<<<<<<<<<<<<<<<<<<<<<<<<<<<<<<<<<<<<<<<<





 SETUP ONE DIMENSIONAL ORBITALS/POTENTIAL
                        delta k  (1/Bohr) = 0.01
                        delta r    (Bohr) = 0.01
                        dr_uniform (Bohr) = 0.001
                        rmax       (Bohr) = 30
                                    kmesh = 1005
      ORBITAL  L  N      nr      dr    RCUT  CHECK_UNIT    NEW_UNIT
            1  0  0     901    0.01       9           1           1
            2  0  1     901    0.01       9           1           1
            3  0  2     901    0.01       9           1           1
            4  1  0     901    0.01       9           1           1
            5  1  1     901    0.01       9           1           1
            6  1  2     901    0.01       9           1           1
            7  2  0     901    0.01       9           1           1
            8  2  1     901    0.01       9           1           1
      ORBITAL  L  N      nr      dr    RCUT  CHECK_UNIT    NEW_UNIT
            1  0  0     901    0.01       9           1           1
            2  0  1     901    0.01       9           1           1
            3  0  2     901    0.01       9           1           1
            4  1  0     901    0.01       9           1           1
            5  1  1     901    0.01       9           1           1
            6  1  2     901    0.01       9           1           1
            7  2  0     901    0.01       9           1           1
            8  2  1     901    0.01       9           1           1
 SET NONLOCAL PSEUDOPOTENTIAL PROJECTORS
 SET NONLOCAL PSEUDOPOTENTIAL PROJECTORS
 max number of nonlocal projetors among all species is 4

 SETUP THE TWO-CENTER INTEGRATION TABLES

 SETUP THE DIVISION OF H/S MATRIX
 divide the H&S matrix using 2D block algorithms.
                                     nb2d = 64
 parameter nb2d is too large: nb2d = 64
 reset nb2d to value 1, this set would make the program keep working but maybe get slower during diagonalization.
                  trace_loc_row dimension = 1584
                  trace_loc_col dimension = 1584
                                     nloc = 156816

 -------------------------------------------
 STEP OF MOLECULAR DYNAMICS : 0
 -------------------------------------------
              searching radius is (Bohr)) = 25.3
         searching radius unit is (Bohr)) = 1.89
1586422
                                 init_chg = atomic
 DONE : INIT SCF Time : 10.1594 (SEC)


 LCAO ALGORITHM --------------- ION=   1  ELEC=   1--------------------------------

 Density error is 0.272146382711

 LCAO ALGORITHM --------------- ION=   1  ELEC=   2--------------------------------

 Density error is 0.154351348069

 LCAO ALGORITHM --------------- ION=   1  ELEC=   3--------------------------------

 Density error is 0.0288692788036

 LCAO ALGORITHM --------------- ION=   1  ELEC=   4--------------------------------

 Density error is 0.0546465026998

 LCAO ALGORITHM --------------- ION=   1  ELEC=   5--------------------------------

 Density error is 0.00747308639787

 LCAO ALGORITHM --------------- ION=   1  ELEC=   6--------------------------------

 Density error is 0.004496875423

 LCAO ALGORITHM --------------- ION=   1  ELEC=   7--------------------------------

 Density error is 0.00139705155864

 LCAO ALGORITHM --------------- ION=   1  ELEC=   8--------------------------------

 Density error is 0.000454711555154

 LCAO ALGORITHM --------------- ION=   1  ELEC=   9--------------------------------

 Density error is 0.000304247448706

 LCAO ALGORITHM --------------- ION=   1  ELEC=  10--------------------------------

 Density error is 0.000136858803654

 LCAO ALGORITHM --------------- ION=   1  ELEC=  11--------------------------------

 Density error is 4.93956031537e-05

 LCAO ALGORITHM --------------- ION=   1  ELEC=  12--------------------------------

 Density error is 2.3625567491e-05

 LCAO ALGORITHM --------------- ION=   1  ELEC=  13--------------------------------

 Density error is 9.28779638166e-06

 LCAO ALGORITHM --------------- ION=   1  ELEC=  14--------------------------------

 Density error is 4.71765016101e-06

 LCAO ALGORITHM --------------- ION=   1  ELEC=  15--------------------------------

 Density error is 2.85814605029e-06

 LCAO ALGORITHM --------------- ION=   1  ELEC=  16--------------------------------

 Density error is 4.12341903044e-07

 charge density convergence is achieved
 final etot is -9452.08100607 eV

 ><><><><><><><><><><><><><><><><><><><><><><><><><><><><><><><><><><><

    TOTAL-FORCE (eV/Angstrom)

 ><><><><><><><><><><><><><><><><><><><><><><><><><><><><><><><><><><><

     atom              x              y              z
      Si1          -1.4075119         -0.52077385          -0.4098863
      Si2         +0.45172284          -1.0101284          +0.1435077
      Si3          -1.6881886          -2.4768028         +0.27436419
      Si4           +1.387144        +0.020673982        -0.031752695
      Si5          -0.2327851         +0.76059823         -0.10336513
      Si6          +1.5665615          +1.4519591         +0.32319624
      Si7          -1.8105359         +0.12174782        +0.082349601
      Si8        -0.097805231          -1.2012494        -0.047506232
      Si9           -1.924459          -1.3031107        -0.052640367
     Si10          +1.5739304         +0.49919811          +1.0161188
     Si11         -0.26944729         +0.92926123         +0.71893685
     Si12          +1.7635926          +2.0168429         +0.95553984
     Si13          -1.4485923         -0.58277104         -0.36286412
     Si14         -0.13756118         +0.18820948         -0.11913196
     Si15         -0.54331744          -1.2957135         +0.21138666
     Si16          +1.4940058         +0.59456723         -0.10964638
     Si17        +0.055070344         -0.12445549         +0.22362288
     Si18        -0.018151911          +1.2565369         -0.20835059
     Si19          -1.5022199         -0.57821745         -0.02731768
     Si20         +0.22554345         +0.33020576         -0.66165836
     Si21         -0.22447994          -1.5823885          +0.5384827
     Si22          +1.7790489         +0.29055585          +1.0505255
     Si23         +0.27721175         +0.11383345         +0.92882338
     Si24         +0.66342646          +1.6942435         +0.94971459
     Si25        +0.055179997         +0.37369275         +0.42817173
     Si26         +0.65917215         +0.64465589         -0.39343163
     Si27         +0.80507524         +0.29333124         -0.40175193
     Si28        -0.096830468          -0.1373937         +0.11252309
     Si29         -0.32512159         -0.38078006         +0.32864777
     Si30         -0.60857903        +0.051925475         -0.26770218
     Si31         +0.13213905         +0.67754071         -0.24006014
     Si32         +0.63172916         +0.52869519         +0.33302069
     Si33         +0.18070938         +0.12806194        -0.087371765
     Si34        +0.098185327         +0.27603843         +0.78873564
     Si35         -0.28068364         -0.39328273         +0.84362861
     Si36         -0.55786319        +0.042013953         +0.82103397
       C1          -1.2762852         -0.40103166         +0.42602563
       C2         +0.22067885         -0.79195835         -0.39969521
       C3          -1.6245141          -1.3567029        +0.035285286
       C4           +1.460623         +0.43319222         +0.73336287
       C5          +0.2942897         +0.24453143         -0.57758636
       C6          +1.5345613          +1.8822048         -0.28930897
       C7          -1.2066552          -0.7675734         +0.17583319
       C8         +0.31174477          -1.0012786         -0.28664733
       C9          -1.7468031          -1.5500061         +0.29348424
      C10         +0.96991844         +0.30408086         -0.20426531
      C11         -0.46700149          +1.4741518          -1.6279522
      C12          +1.2369802          +1.8767494         -0.73442639
      C13           -1.184523         -0.98854118        +0.066710968
      C14         -0.23881803        -0.085619552         -0.21199749
      C15         -0.19243862          -1.3763745         -0.18792993
      C16          +1.3927971         +0.57876771         +0.32592062
      C17        +0.023328135         -0.19665573         +0.27524475
      C18        -0.093915594          +1.4235919          -0.3124558
      C19          -1.2732382         -0.50273727         +0.10786752
      C20          -0.2655106         -0.15112602         +0.16418055
      C21        -0.064447463          -1.5229784         -0.25484238
      C22          +1.0822454         +0.29451445         -0.31127551
      C23        -0.089712384         -0.27652039         -0.87644358
      C24        +0.067475728          +1.0669926          -1.1502105
      C25          +0.3386188        +0.094355609         -0.15970508
      C26         +0.38121028         +0.32234336        -0.059164108
      C27         +0.43111692         +0.52581435         -0.29398683
      C28        +0.048480584         -0.48919672         +0.51340411
      C29         -0.10758638         -0.23252752         -0.49807707
      C30         -0.23137773         -0.22257501        +0.051385022
      C31         -0.11193725         +0.22245058         +0.42176634
      C32         +0.22499841         +0.32779673         -0.18050982
      C33           +0.357078         +0.41417952         -0.21846526
      C34         -0.21956248         -0.74183389         -0.61413997
      C35         -0.29880933         -0.27102695         -0.84577989
      C36         -0.30832412         -0.25677469         -0.84349914


 ><><><><><><><><><><><><><><><><><><><><><><><><><><><><><><><><><><><

 TOTAL-STRESS (KBAR)

 ><><><><><><><><><><><><><><><><><><><><><><><><><><><><><><><><><><><

             -103.637259             -21.315810              -9.936361
              -21.315810             +56.723663             -14.851682
               -9.936361             -14.851682             -30.036039
 TOTAL-PRESSURE: -25.649878 KBAR


 ------------------------------------------------------------------------------------------------
 Energy              Potential           Kinetic             Temperature         Pressure (KBAR)     
 -347.35407          -347.35745          +0.0033726584       +10                 -25.524159          
 ------------------------------------------------------------------------------------------------

output Pressure for check!
Virtual Pressure is -25.524159 Kbar 
Virial Term is -25.649878 Kbar 
Kenetic Term is +0.12571949 Kbar 


 ><><><><><><><><><><><><><><><><><><><><><><><><><><><><><><><><><><><

 MD STRESS (KBAR)

 ><><><><><><><><><><><><><><><><><><><><><><><><><><><><><><><><><><><

-103.5211      -21.337775     -9.9353382     
-21.337775     +56.843229     -14.871125     
-9.9353382     -14.871125     -29.894606     



 -------------------------------------------
 STEP OF MOLECULAR DYNAMICS : 1
 -------------------------------------------
 NEW-OLD atomic charge density approx. for the potential !
 searching radius is (Bohr))              = +25.29
 searching radius unit is (Bohr))         = +1.8897261
+1586422
 DONE : INIT SCF Time : +1589.43 (SEC)


 LCAO ALGORITHM --------------- ION=+2    ELEC=+1  --------------------------------

 Density error is +0.000449169128206

 LCAO ALGORITHM --------------- ION=+2    ELEC=+2  --------------------------------

 Density error is +0.000252457159803

 LCAO ALGORITHM --------------- ION=+2    ELEC=+3  --------------------------------

 Density error is +0.000251463546906

 LCAO ALGORITHM --------------- ION=+2    ELEC=+4  --------------------------------

 Density error is +5.8654235345e-05

 LCAO ALGORITHM --------------- ION=+2    ELEC=+5  --------------------------------

 Density error is +3.89967964001e-05

 LCAO ALGORITHM --------------- ION=+2    ELEC=+6  --------------------------------

 Density error is +1.79292771233e-05

 LCAO ALGORITHM --------------- ION=+2    ELEC=+7  --------------------------------

 Density error is +6.1925650716e-06

 LCAO ALGORITHM --------------- ION=+2    ELEC=+8  --------------------------------

 Density error is +1.49062444855e-06

 LCAO ALGORITHM --------------- ION=+2    ELEC=+9  --------------------------------

 Density error is +6.79602034504e-07

 charge density convergence is achieved
 final etot is -9452.11813124 eV

 ><><><><><><><><><><><><><><><><><><><><><><><><><><><><><><><><><><><

    TOTAL-FORCE (eV/Angstrom)

 ><><><><><><><><><><><><><><><><><><><><><><><><><><><><><><><><><><><

 atom    x              y              z              
 Si1     -1.4215751          -0.49386631         -0.43841069         
 Si2     +0.45543457         -0.95992464         +0.11992208         
 Si3     -1.6801264          -2.4871764          +0.26626153         
 Si4     +1.3677821          +0.061017818        -0.032780434        
 Si5     -0.2407753          +0.72770903         -0.11960508         
 Si6     +1.5535269          +1.4354941          +0.32066384         
 Si7     -1.8136526          +0.1216416          +0.083510715        
 Si8     -0.10579783         -1.1981432          -0.049525063        
 Si9     -1.937068           -1.3030161          -0.039229057        
 Si10    +1.5781296          +0.47431991         +1.000243           
 Si11    -0.27367777         +0.88378006         +0.7042692          
 Si12    +1.7580129          +2.0211949          +0.95030904         
 Si13    -1.4473201          -0.57937011         -0.3646267          
 Si14    -0.14467033         +0.17658248         -0.13881514         
 Si15    -0.55092165         -1.2637756          +0.22526329         
 Si16    +1.4965408          +0.60526209         -0.12244915         
 Si17    +0.069342065        -0.13303772         +0.19448612         
 Si18    -0.014490072        +1.2332992          -0.22044354         
 Si19    -1.4997882          -0.58530748         -0.024771574        
 Si20    +0.20506851         +0.31689172         -0.63936318         
 Si21    -0.21446576         -1.5385838          +0.5470823          
 Si22    +1.7597807          +0.29362369         +1.0553823          
 Si23    +0.27849106         +0.1142817          +0.93563783         
 Si24    +0.63941489         +1.6620114          +0.94374163         
 Si25    +0.059418659        +0.36486735         +0.42993058         
 Si26    +0.66394972         +0.62703206         -0.40644401         
 Si27    +0.80659441         +0.29239794         -0.40442717         
 Si28    -0.075866476        -0.14922348         +0.11760171         
 Si29    -0.33142631         -0.36395692         +0.31543939         
 Si30    -0.60308078         +0.045622942        -0.27161812         
 Si31    +0.11005829         +0.69310266         -0.25240742         
 Si32    +0.67755292         +0.52103569         +0.32161744         
 Si33    +0.17967393         +0.14652078         -0.11729831         
 Si34    +0.092124081        +0.27743745         +0.80347743         
 Si35    -0.30053893         -0.39554345         +0.85565204         
 Si36    -0.5795032          +0.026234326        +0.8224912          
 C1      -1.2456095          -0.3929822          +0.44202206         
 C2      +0.22334082         -0.78804381         -0.36164223         
 C3      -1.6057193          -1.3198184          +0.054258312        
 C4      +1.4531517          +0.40648415         +0.72753752         
 C5      +0.31484331         +0.24733745         -0.57455034         
 C6      +1.5119653          +1.8698848          -0.28549057         
 C7      -1.1984629          -0.76567113         +0.18044627         
 C8      +0.3263607          -0.9808545          -0.28741232         
 C9      -1.7553102          -1.5057876          +0.305271           
 C10     +0.95433673         +0.31825996         -0.20380501         
 C11     -0.47131109         +1.466273           -1.6208958          
 C12     +1.2419263          +1.8177874          -0.70980365         
 C13     -1.1845861          -1.0022945          +0.072878614        
 C14     -0.25547418         -0.088827547        -0.17659933         
 C15     -0.20276257         -1.3477818          -0.19364788         
 C16     +1.3731144          +0.59034442         +0.34792417         
 C17     +0.046667014        -0.20019671         +0.30426489         
 C18     -0.10784529         +1.3757208          -0.30881405         
 C19     -1.2442426          -0.50945815         +0.10671135         
 C20     -0.25609606         -0.13876355         +0.12960515         
 C21     -0.063804826        -1.4819173          -0.25112394         
 C22     +1.0832134          +0.31347863         -0.3154234          
 C23     -0.08439332         -0.26941606         -0.87806769         
 C24     +0.063574715        +1.0462477          -1.1378612          
 C25     +0.32084066         +0.10325174         -0.16275991         
 C26     +0.39239083         +0.31709616         -0.048051019        
 C27     +0.41660476         +0.48662964         -0.28757353         
 C28     +0.064247052        -0.48931396         +0.48813213         
 C29     -0.1124486          -0.23953371         -0.51623745         
 C30     -0.22383278         -0.20123216         +0.061856623        
 C31     -0.091813877        +0.21929489         +0.42907277         
 C32     +0.23498419         +0.32012393         -0.18728278         
 C33     +0.37328114         +0.432061           -0.19271921         
 C34     -0.20277506         -0.75577095         -0.6445942          
 C35     -0.29802369         -0.2589544          -0.85671133         
 C36     -0.3064823          -0.26409311         -0.81968209         


 ><><><><><><><><><><><><><><><><><><><><><><><><><><><><><><><><><><><

 TOTAL-STRESS (KBAR)

 ><><><><><><><><><><><><><><><><><><><><><><><><><><><><><><><><><><><

 -103.704867            -21.217679             -10.008535             
 -21.217679             +56.125774             -14.880231             
 -10.008535             -14.880231             -29.996577             
 TOTAL-PRESSURE: -25.858556 KBAR


 ------------------------------------------------------------------------------------------------
 Energy              Potential           Kinetic             Temperature         Pressure (KBAR)     
 -347.35044          -347.35881          +0.008371686        +24.822217          -25.546493          
 ------------------------------------------------------------------------------------------------

output Pressure for check!
Virtual Pressure is -25.546493 Kbar 
Virial Term is -25.858556 Kbar 
Kenetic Term is +0.31206364 Kbar 


 ><><><><><><><><><><><><><><><><><><><><><><><><><><><><><><><><><><><

 MD STRESS (KBAR)

 ><><><><><><><><><><><><><><><><><><><><><><><><><><><><><><><><><><><

-103.39197     -21.141606     -9.9803067     
-21.141606     +56.543111     -14.856557     
-9.9803067     -14.856557     -29.790616     



 -------------------------------------------
 STEP OF MOLECULAR DYNAMICS : 2
 -------------------------------------------
 first order charge density extrapolation !
 searching radius is (Bohr))              = +25.29
 searching radius unit is (Bohr))         = +1.8897261
+1586202
 DONE : INIT SCF Time : +2514.67 (SEC)


 LCAO ALGORITHM --------------- ION=+3    ELEC=+1  --------------------------------

 Density error is +0.00157227650729

 LCAO ALGORITHM --------------- ION=+3    ELEC=+2  --------------------------------

 Density error is +0.00105054432025

 LCAO ALGORITHM --------------- ION=+3    ELEC=+3  --------------------------------

 Density error is +0.000924329262708

 LCAO ALGORITHM --------------- ION=+3    ELEC=+4  --------------------------------

 Density error is +0.000228339476327

 LCAO ALGORITHM --------------- ION=+3    ELEC=+5  --------------------------------

 Density error is +0.000154087323076

 LCAO ALGORITHM --------------- ION=+3    ELEC=+6  --------------------------------

 Density error is +6.22652416446e-05

 LCAO ALGORITHM --------------- ION=+3    ELEC=+7  --------------------------------

 Density error is +2.62781403538e-05

 LCAO ALGORITHM --------------- ION=+3    ELEC=+8  --------------------------------

 Density error is +5.4258430298e-06

 LCAO ALGORITHM --------------- ION=+3    ELEC=+9  --------------------------------

 Density error is +2.1763634623e-06

 LCAO ALGORITHM --------------- ION=+3    ELEC=+10 --------------------------------

 Density error is +7.82798615262e-07

 charge density convergence is achieved
 final etot is -9452.21723648 eV

 ><><><><><><><><><><><><><><><><><><><><><><><><><><><><><><><><><><><

    TOTAL-FORCE (eV/Angstrom)

 ><><><><><><><><><><><><><><><><><><><><><><><><><><><><><><><><><><><

 atom    x              y              z              
 Si1     -1.4836536          -0.45061861         -0.38185968         
 Si2     +0.45795457         -0.95468175         +0.094368171        
 Si3     -1.7009611          -2.4078553          +0.22698302         
 Si4     +1.3433928          +0.059259468        -0.084196021        
 Si5     -0.28782544         +0.67948886         -0.082292703        
 Si6     +1.509761           +1.4075137          +0.25199812         
 Si7     -1.7949352          +0.1436148          +0.037802625        
 Si8     -0.11718035         -1.2125947          -0.083030945        
 Si9     -1.947253           -1.348339           -0.042034242        
 Si10    +1.6151503          +0.41771151         +1.0080563          
 Si11    -0.34523872         +0.84964868         +0.67969324         
 Si12    +1.7448742          +1.9847994          +0.94219321         
 Si13    -1.4466599          -0.57814868         -0.39039245         
 Si14    -0.22756479         +0.11871313         -0.17017138         
 Si15    -0.57350286         -1.2686399          +0.22851535         
 Si16    +1.4825827          +0.5833919          -0.088485144        
 Si17    +0.088864436        +0.014679175        +0.15740536         
 Si18    -0.045818844        +1.1434418          -0.249385           
 Si19    -1.4911371          -0.55391306         -0.023993777        
 Si20    +0.26609311         +0.27739797         -0.64942607         
 Si21    -0.20752387         -1.573219           +0.56548398         
 Si22    +1.8049756          +0.34008032         +1.0582534          
 Si23    +0.32844516         +0.099296555        +0.85758637         
 Si24    +0.62055132         +1.5680939          +0.89184699         
 Si25    +0.026062997        +0.25808017         +0.45432301         
 Si26    +0.72739025         +0.64592203         -0.44010709         
 Si27    +0.86673886         +0.35739202         -0.44324066         
 Si28    -0.10844837         -0.16139636         +0.16307157         
 Si29    -0.37115538         -0.41729352         +0.29122233         
 Si30    -0.67063636         +0.010772249        -0.27575751         
 Si31    +0.11432436         +0.70040742         -0.20640637         
 Si32    +0.64883707         +0.49263937         +0.31939423         
 Si33    +0.1273405          +0.16603148         -0.059004509        
 Si34    +0.046599006        +0.24239881         +0.74597899         
 Si35    -0.42159055         -0.41975079         +0.77599761         
 Si36    -0.66289406         +0.061184908        +0.79460693         
 C1      -1.226635           -0.36360265         +0.40678597         
 C2      +0.28927894         -0.73580108         -0.30931856         
 C3      -1.5662931          -1.3281201          +0.088001598        
 C4      +1.4406753          +0.38932858         +0.78440326         
 C5      +0.31217259         +0.35551648         -0.60632011         
 C6      +1.4778385          +1.833343           -0.25773402         
 C7      -1.1120022          -0.79167239         +0.19183948         
 C8      +0.34957542         -0.84163625         -0.23268875         
 C9      -1.6569646          -1.5676226          +0.33949612         
 C10     +0.89746435         +0.25420192         -0.23760643         
 C11     -0.36336937         +1.3968724          -1.5744194          
 C12     +1.1906857          +1.7868416          -0.74617152         
 C13     -1.1381997          -0.95029104         +0.039474601        
 C14     -0.19069101         -0.14846932         -0.22649152         
 C15     -0.21010905         -1.2504841          -0.25188838         
 C16     +1.4243147          +0.53226347         +0.28342523         
 C17     +0.0048750925       -0.25699702         +0.37228315         
 C18     -0.0489088          +1.4282008          -0.24149627         
 C19     -1.2434928          -0.45687025         +0.16765261         
 C20     -0.19753699         -0.20867746         +0.22027485         
 C21     +0.0016480554       -1.3251106          -0.23657967         
 C22     +1.0361011          +0.23749088         -0.23359197         
 C23     -0.12242123         -0.13816935         -0.85645273         
 C24     +0.049929852        +1.0327356          -1.0763426          
 C25     +0.37549927         +0.041938678        -0.21516071         
 C26     +0.44848027         +0.39785488         -0.022634395        
 C27     +0.34555145         +0.42654498         -0.25588852         
 C28     +0.00061868135      -0.36218321         +0.46022167         
 C29     -0.074345971        -0.25517979         -0.51755785         
 C30     -0.20392612         -0.26050756         +0.041410328        
 C31     -0.057494689        +0.32222327         +0.35990008         
 C32     +0.19526764         +0.24450037         -0.21627313         
 C33     +0.27406028         +0.46743702         -0.2306735          
 C34     -0.13634324         -0.76857618         -0.58237834         
 C35     -0.28321146         -0.2008818          -0.76622431         
 C36     -0.19805055         -0.21195013         -0.73627341         


 ><><><><><><><><><><><><><><><><><><><><><><><><><><><><><><><><><><><

 TOTAL-STRESS (KBAR)

 ><><><><><><><><><><><><><><><><><><><><><><><><><><><><><><><><><><><

 -104.422680            -20.962224             -10.372331             
 -20.962224             +54.902724             -15.156779             
 -10.372331             -15.156779             -29.972708             
 TOTAL-PRESSURE: -26.497555 KBAR


 ------------------------------------------------------------------------------------------------
 Energy              Potential           Kinetic             Temperature         Pressure (KBAR)     
 -347.34038          -347.36245          +0.022069002        +65.435033          -25.674909          
 ------------------------------------------------------------------------------------------------

output Pressure for check!
Virtual Pressure is -25.674909 Kbar 
Virial Term is -26.497555 Kbar 
Kenetic Term is +0.82264588 Kbar 


 ><><><><><><><><><><><><><><><><><><><><><><><><><><><><><><><><><><><

 MD STRESS (KBAR)

 ><><><><><><><><><><><><><><><><><><><><><><><><><><><><><><><><><><><

-103.38288     -20.788259     -10.302361     
-20.788259     +55.727992     -15.215111     
-10.302361     -15.215111     -29.369834     



 -------------------------------------------
 STEP OF MOLECULAR DYNAMICS : 3
 -------------------------------------------
 second order charge density extrapolation !
 searching radius is (Bohr))              = +25.29
 searching radius unit is (Bohr))         = +1.8897261
+1586598
 DONE : INIT SCF Time : +3530.38 (SEC)


 LCAO ALGORITHM --------------- ION=+4    ELEC=+1  --------------------------------

 Density error is +0.00193849848032

 LCAO ALGORITHM --------------- ION=+4    ELEC=+2  --------------------------------

 Density error is +0.00128639513041

 LCAO ALGORITHM --------------- ION=+4    ELEC=+3  --------------------------------

 Density error is +0.00116939083418

 LCAO ALGORITHM --------------- ION=+4    ELEC=+4  --------------------------------

 Density error is +0.000319376840039

 LCAO ALGORITHM --------------- ION=+4    ELEC=+5  --------------------------------

 Density error is +0.000188103173245

 LCAO ALGORITHM --------------- ION=+4    ELEC=+6  --------------------------------

 Density error is +6.97720949703e-05

 LCAO ALGORITHM --------------- ION=+4    ELEC=+7  --------------------------------

 Density error is +2.7396019321e-05

 LCAO ALGORITHM --------------- ION=+4    ELEC=+8  --------------------------------

 Density error is +7.2513392257e-06

 LCAO ALGORITHM --------------- ION=+4    ELEC=+9  --------------------------------

 Density error is +2.97720105474e-06

 LCAO ALGORITHM --------------- ION=+4    ELEC=+10 --------------------------------

 Density error is +1.15854153887e-06

 LCAO ALGORITHM --------------- ION=+4    ELEC=+11 --------------------------------

 Density error is +6.73233515088e-07

 charge density convergence is achieved
 final etot is -9452.32308915 eV

 ><><><><><><><><><><><><><><><><><><><><><><><><><><><><><><><><><><><

    TOTAL-FORCE (eV/Angstrom)

 ><><><><><><><><><><><><><><><><><><><><><><><><><><><><><><><><><><><

 atom    x              y              z              
 Si1     -1.5484922          -0.29150926         -0.42108341         
 Si2     +0.37550719         -0.82397175         -0.028071048        
 Si3     -1.6944495          -2.2760022          +0.16570527         
 Si4     +1.3828664          +0.042182105        -0.11226029         
 Si5     -0.35841507         +0.52753041         -0.1108406          
 Si6     +1.5448349          +1.3051933          +0.24254348         
 Si7     -1.7449464          +0.090716237        +0.027477591        
 Si8     -0.029537636        -1.2294354          -0.1577821          
 Si9     -1.9217602          -1.3570405          -0.12352904         
 Si10    +1.60877            +0.38387071         +0.96022173         
 Si11    -0.4299651          +0.85340711         +0.63993709         
 Si12    +1.7771632          +1.987826           +0.91854538         
 Si13    -1.4309446          -0.60988665         -0.30975856         
 Si14    -0.33844632         +0.056992576        -0.25712784         
 Si15    -0.54712521         -1.1926606          +0.23001484         
 Si16    +1.4224835          +0.72258848         -0.078113575        
 Si17    +0.12174153         +0.022003388        +0.058686751        
 Si18    -0.063111323        +1.1480666          -0.34810005         
 Si19    -1.5799099          -0.57946872         +0.062160283        
 Si20    +0.28787387         +0.39968389         -0.49688916         
 Si21    -0.17326773         -1.4918858          +0.57142252         
 Si22    +1.802902           +0.2618545          +1.0532726          
 Si23    +0.32220488         +0.20707237         +0.93265995         
 Si24    +0.64358896         +1.5522658          +0.96051229         
 Si25    +0.021880084        +0.34932345         +0.40473188         
 Si26    +0.68099497         +0.72910365         -0.48863253         
 Si27    +0.80803976         +0.33946286         -0.44582989         
 Si28    -0.22439091         -0.18752408         +0.20771953         
 Si29    -0.46109833         -0.51628741         +0.1742823          
 Si30    -0.78523713         +0.084394551        -0.33012653         
 Si31    -0.0018423852       +0.76264424         -0.1166318          
 Si32    +0.7536009          +0.45340232         +0.34419073         
 Si33    +0.1756513          +0.25480262         +0.028475088        
 Si34    -0.021183316        +0.20985783         +0.83150433         
 Si35    -0.47739842         -0.48004485         +0.78018257         
 Si36    -0.7134437          +0.047791526        +0.85349399         
 C1      -1.2239366          -0.33955794         +0.41165168         
 C2      +0.37323731         -0.5581529          -0.2571841          
 C3      -1.4812892          -1.3183475          +0.20487896         
 C4      +1.3172463          +0.39579221         +0.85387046         
 C5      +0.2758178          +0.38187007         -0.54423226         
 C6      +1.3757857          +1.7775864          -0.19012068         
 C7      -1.0063351          -0.82552398         +0.22007508         
 C8      +0.4312533          -0.78609704         -0.15845831         
 C9      -1.5832496          -1.5165247          +0.46748235         
 C10     +0.87480437         +0.3237723          -0.23992346         
 C11     -0.29388846         +1.1928671          -1.5886618          
 C12     +1.1910286          +1.5365116          -0.71962279         
 C13     -1.053257           -0.84552168         +0.054821796        
 C14     -0.12600848         -0.25251799         -0.086205695        
 C15     -0.1815437          -1.2064349          -0.26949786         
 C16     +1.3868958          +0.5302432          +0.27637185         
 C17     -0.06907224         -0.29115436         +0.27239093         
 C18     +0.032501005        +1.2915076          -0.18778561         
 C19     -1.2094791          -0.32385932         +0.094658362        
 C20     -0.16188003         -0.27016465         +0.056242038        
 C21     -0.072687353        -1.3437016          -0.3286563          
 C22     +1.0272571          +0.20576693         -0.24359235         
 C23     -0.11237035         -0.17458935         -0.86741216         
 C24     +0.15924626         +0.95282653         -1.0659686          
 C25     +0.47299563         +0.16246325         -0.11753416         
 C26     +0.36412905         +0.27209298         -0.051843884        
 C27     +0.39635112         +0.3397027          -0.18077414         
 C28     +0.071279337        -0.4376136          +0.49644646         
 C29     -0.10667049         -0.16488241         -0.42174415         
 C30     -0.11536242         -0.31019756         -0.076564611        
 C31     -0.010620378        +0.27833175         +0.23832093         
 C32     +0.085308751        +0.35954996         -0.19121118         
 C33     +0.25725034         +0.416018           -0.32965132         
 C34     -0.032765972        -0.73030378         -0.61068518         
 C35     -0.37099961         -0.23109962         -0.82418658         
 C36     -0.066109504        -0.24697705         -0.71865747         


 ><><><><><><><><><><><><><><><><><><><><><><><><><><><><><><><><><><><

 TOTAL-STRESS (KBAR)

 ><><><><><><><><><><><><><><><><><><><><><><><><><><><><><><><><><><><

 -104.442268            -20.618415             -10.876476             
 -20.618415             +52.808124             -14.835644             
 -10.876476             -14.835644             -30.154484             
 TOTAL-PRESSURE: -27.262876 KBAR


 ------------------------------------------------------------------------------------------------
 Energy              Potential           Kinetic             Temperature         Pressure (KBAR)     
 -347.33907          -347.36634          +0.027276809        +80.876288          -26.246103          
 ------------------------------------------------------------------------------------------------

output Pressure for check!
Virtual Pressure is -26.246103 Kbar 
Virial Term is -27.262876 Kbar 
Kenetic Term is +1.0167725 Kbar 


 ><><><><><><><><><><><><><><><><><><><><><><><><><><><><><><><><><><><

 MD STRESS (KBAR)

 ><><><><><><><><><><><><><><><><><><><><><><><><><><><><><><><><><><><

-103.27284     -20.744425     -11.01555      
-20.744425     +53.924823     -14.896288     
-11.01555      -14.896288     -29.390291     



 -------------------------------------------
 STEP OF MOLECULAR DYNAMICS : 4
 -------------------------------------------
 second order charge density extrapolation !
 searching radius is (Bohr))              = +25.29
 searching radius unit is (Bohr))         = +1.8897261
+1586820
 DONE : INIT SCF Time : +4638.19 (SEC)


 LCAO ALGORITHM --------------- ION=+5    ELEC=+1  --------------------------------

 Density error is +0.00245901329405

 LCAO ALGORITHM --------------- ION=+5    ELEC=+2  --------------------------------

 Density error is +0.00145093492328

 LCAO ALGORITHM --------------- ION=+5    ELEC=+3  --------------------------------

 Density error is +0.0013466635262

 LCAO ALGORITHM --------------- ION=+5    ELEC=+4  --------------------------------

 Density error is +0.00030573409559

 LCAO ALGORITHM --------------- ION=+5    ELEC=+5  --------------------------------

 Density error is +0.000209822321857

 LCAO ALGORITHM --------------- ION=+5    ELEC=+6  --------------------------------

 Density error is +9.93099492257e-05

 LCAO ALGORITHM --------------- ION=+5    ELEC=+7  --------------------------------

 Density error is +3.42869533133e-05

 LCAO ALGORITHM --------------- ION=+5    ELEC=+8  --------------------------------

 Density error is +8.47024769962e-06

 LCAO ALGORITHM --------------- ION=+5    ELEC=+9  --------------------------------

 Density error is +3.29827670657e-06

 LCAO ALGORITHM --------------- ION=+5    ELEC=+10 --------------------------------

 Density error is +1.25774087421e-06

 LCAO ALGORITHM --------------- ION=+5    ELEC=+11 --------------------------------

 Density error is +5.57522849039e-07

 charge density convergence is achieved
 final etot is -9452.40958988 eV

 ><><><><><><><><><><><><><><><><><><><><><><><><><><><><><><><><><><><

    TOTAL-FORCE (eV/Angstrom)

 ><><><><><><><><><><><><><><><><><><><><><><><><><><><><><><><><><><><

 atom    x              y              z              
 Si1     -1.5537323          -0.32641985         -0.46165531         
 Si2     +0.57210981         -0.88047077         +0.0425332          
 Si3     -1.6851458          -2.1670041          +0.14765964         
 Si4     +1.4544876          +0.060446942        -0.079876251        
 Si5     -0.37731856         +0.45605527         -0.11586128         
 Si6     +1.6060496          +1.1346634          +0.11405461         
 Si7     -1.7353304          +0.099960967        +0.10476523         
 Si8     +0.10506056         -1.3783434          -0.07278776         
 Si9     -2.0488583          -1.3525316          -0.14572262         
 Si10    +1.6098253          +0.36802703         +0.96818697         
 Si11    -0.42716048         +0.90445511         +0.65255426         
 Si12    +1.7694572          +1.9414342          +0.93694589         
 Si13    -1.5370448          -0.58122554         -0.24285887         
 Si14    -0.31904361         +0.036977842        -0.10765567         
 Si15    -0.54161149         -1.192645           +0.36966787         
 Si16    +1.3313503          +0.78463325         -0.13536297         
 Si17    +0.10504912         +0.031085402        +0.026621349        
 Si18    +0.055340551        +1.0793779          -0.4293412          
 Si19    -1.4459218          -0.64346529         +0.11557222         
 Si20    +0.21948677         +0.33730881         -0.52381085         
 Si21    -0.1311781          -1.5153839          +0.50926836         
 Si22    +1.7776683          +0.27766175         +1.1077444          
 Si23    +0.1857173          +0.35598973         +0.88811475         
 Si24    +0.58914022         +1.6188863          +0.94809297         
 Si25    +0.097777461        +0.32649109         +0.26994755         
 Si26    +0.777077           +0.7129186          -0.501461           
 Si27    +0.85797806         +0.44716928         -0.57145079         
 Si28    -0.22847703         -0.03192369         +0.20198867         
 Si29    -0.44495011         -0.37386654         +0.2241828          
 Si30    -0.80023318         +0.16517585         -0.19806291         
 Si31    -0.0050205167       +0.65903016         -0.21345598         
 Si32    +0.65728494         +0.4354935          +0.40727831         
 Si33    +0.14784304         +0.37848968         +0.06024243         
 Si34    -0.047529361        +0.16575081         +0.80553597         
 Si35    -0.47952275         -0.47495052         +0.78402134         
 Si36    -0.59043623         -0.010517022        +0.75340467         
 C1      -1.1060663          -0.42057488         +0.45663121         
 C2      +0.23362592         -0.42880346         -0.22549067         
 C3      -1.4928098          -1.2455708          +0.1105184          
 C4      +1.1993597          +0.24445255         +0.95346413         
 C5      +0.40076963         +0.52506201         -0.62861832         
 C6      +1.2391945          +1.9740419          -0.17797336         
 C7      -0.98875168         -0.7498338          +0.1589849          
 C8      +0.40923943         -0.63261102         -0.18119977         
 C9      -1.527637           -1.5440743          +0.44514715         
 C10     +0.76751389         +0.3135028          -0.15644486         
[...]
 C16     +1.4448153          +0.17095503         +0.079076639        
 C17     +0.24549604         +0.12207845         +0.41834116         
 C18     +0.033025724        +1.2855349          +0.51513268         
 C19     -0.88451096         -0.30124449         +0.031293334        
 C20     -0.030384439        -0.4827941          +0.49107083         
 C21     -0.069132494        -0.75603025         -0.32340726         
 C22     +0.63287293         +0.22376998         -0.20851041         
 C23     -0.28917737         -0.068901794        -0.50375251         
 C24     -0.47348723         +0.8892915          -1.3968291          
 C25     +0.093811713        +0.013200111        -0.15298395         
 C26     -0.032722463        +0.57284826         +0.22576728         
 C27     -0.15192879         +0.041704316        +0.077350928        
 C28     +0.046835152        -0.2181095          -0.14469736         
 C29     -0.078220335        -0.3640566          -0.52897889         
 C30     -0.36043591         -0.39154986         +0.06209174         
 C31     +0.012014726        -0.034486093        +0.6421886          
 C32     +0.39787596         +0.42520127         -0.10004469         
 C33     +0.089083228        +0.47715701         -0.13457458         
 C34     -0.10088543         -0.50244982         -0.51539607         
 C35     -0.29741136         +0.60525573         -1.1240757          
 C36     -0.32200778         -0.10738053         -0.32179599         


 ><><><><><><><><><><><><><><><><><><><><><><><><><><><><><><><><><><><

 TOTAL-STRESS (KBAR)

 ><><><><><><><><><><><><><><><><><><><><><><><><><><><><><><><><><><><

 -109.748556            -18.295397             -10.101953             
 -18.295397             +48.468106             -15.746598             
 -10.101953             -15.746598             -28.030822             
 TOTAL-PRESSURE: -29.770424 KBAR


 ------------------------------------------------------------------------------------------------
 Energy              Potential           Kinetic             Temperature         Pressure (KBAR)     
 -347.30023          -347.37896          +0.078732123        +233.44233          -26.835599          
 ------------------------------------------------------------------------------------------------

output Pressure for check!
Virtual Pressure is -26.835599 Kbar 
Virial Term is -29.770424 Kbar 
Kenetic Term is +2.934825 Kbar 


 ><><><><><><><><><><><><><><><><><><><><><><><><><><><><><><><><><><><

 MD STRESS (KBAR)

 ><><><><><><><><><><><><><><><><><><><><><><><><><><><><><><><><><><><

-107.23032     -18.506805     -9.7840404     
-18.506805     +51.510808     -16.088818     
-9.7840404     -16.088818     -24.787287     



 -------------------------------------------
 STEP OF MOLECULAR DYNAMICS : 10
 -------------------------------------------
 second order charge density extrapolation !
 searching radius is (Bohr))              = +25.29
 searching radius unit is (Bohr))         = +1.8897261
+1588816
 DONE : INIT SCF Time : +11282 (SEC)


 LCAO ALGORITHM --------------- ION=+11   ELEC=+1  --------------------------------

 Density error is +0.00351835515031

 LCAO ALGORITHM --------------- ION=+11   ELEC=+2  --------------------------------

 Density error is +0.00215995674442

 LCAO ALGORITHM --------------- ION=+11   ELEC=+3  --------------------------------

 Density error is +0.00194814788191

 LCAO ALGORITHM --------------- ION=+11   ELEC=+4  --------------------------------

 Density error is +0.000485459712091

 LCAO ALGORITHM --------------- ION=+11   ELEC=+5  --------------------------------

 Density error is +0.000349573377373

 LCAO ALGORITHM --------------- ION=+11   ELEC=+6  --------------------------------

 Density error is +0.000135484272455

 LCAO ALGORITHM --------------- ION=+11   ELEC=+7  --------------------------------

 Density error is +5.65641871795e-05

 LCAO ALGORITHM --------------- ION=+11   ELEC=+8  --------------------------------

 Density error is +1.22273722048e-05

 LCAO ALGORITHM --------------- ION=+11   ELEC=+9  --------------------------------

 Density error is +4.13943124717e-06

 LCAO ALGORITHM --------------- ION=+11   ELEC=+10 --------------------------------

 Density error is +1.58477953833e-06

 LCAO ALGORITHM --------------- ION=+11   ELEC=+11 --------------------------------

 Density error is +1.2708278097e-06

 LCAO ALGORITHM --------------- ION=+11   ELEC=+12 --------------------------------

 Density error is +4.02040558699e-07

 charge density convergence is achieved
 final etot is -9452.66726541 eV

 ><><><><><><><><><><><><><><><><><><><><><><><><><><><><><><><><><><><

    TOTAL-FORCE (eV/Angstrom)

 ><><><><><><><><><><><><><><><><><><><><><><><><><><><><><><><><><><><

 atom    x              y              z              
 Si1     -1.5313053          -0.49517721         -0.37135479         
 Si2     +0.19729545         -0.55798105         -0.23122556         
 Si3     -1.4607164          -1.8462806          +0.30094318         
 Si4     +1.5671286          +0.30438339         -0.17416642         
 Si5     -0.1698913          +0.71266626         -0.33792023         
 Si6     +1.8338171          +0.48854747         -0.41576039         
 Si7     -1.5518011          +0.28533216         -0.17632474         
 Si8     +0.54129588         -1.2434446          -0.20016542         
 Si9     -1.8399114          -1.2694757          -0.36936127         
 Si10    +1.8044039          +0.21676949         +0.71442705         
 Si11    -0.10600725         +0.97476081         +0.75651144         
 Si12    +1.5668509          +1.6188026          +1.0628645          
 Si13    -1.1498594          -0.99796102         -0.65890871         
 Si14    -0.25230335         -0.13898356         -0.6838216          
 Si15    -0.26356797         -1.3447531          +0.70566304         
 Si16    +1.4004954          +0.74762177         -0.31454388         
 Si17    +0.11383054         +0.51204654         +0.13907264         
 Si18    +0.28138232         +1.1301623          -0.79796252         
 Si19    -1.160308           -0.60476257         -0.23355461         
 Si20    +0.066288264        -0.077693002        -0.62830309         
 Si21    -0.24295512         -1.819228           +0.49381877         
 Si22    +1.8352543          +0.30867084         +0.98765732         
 Si23    +0.044130923        +0.41271105         +0.44600253         
 Si24    +0.35134562         +1.113731           +0.83702278         
 Si25    +0.16483233         -0.023556759        +0.12237902         
 Si26    +1.1195378          +0.66953806         -0.54976589         
 Si27    +1.1838562          -0.055170958        -0.50952065         
 Si28    -0.49365145         -0.046525167        +0.38638331         
 Si29    -0.63003904         -0.43149521         +0.22819093         
 Si30    -0.98715407         +0.20971733         -0.19400627         
 Si31    +0.2806165          +0.74102791         -0.33312759         
 Si32    +0.63606702         +0.52027966         +0.088384178        
 Si33    -0.0088029784       -0.018860093        -0.12251334         
 Si34    +0.026243914        +0.37406774         +0.84187512         
 Si35    -0.28041257         -0.82748016         +0.99710343         
 Si36    -0.90407972         +0.089306439        +0.66135792         
 C1      -0.84107749         -0.49588481         +0.19154534         
 C2      +0.56223704         +0.18325409         +0.45280837         
 C3      -1.3252145          -1.417039           -0.07879963         
 C4      +0.67534087         +0.77994314         +1.0640948          
 C5      +0.049745006        +0.010023243        -0.099662136        
 C6      +1.1498951          +1.6652583          +0.35503853         
 C7      -0.79968467         -0.43520081         +0.011239955        
 C8      +0.2993299          -0.59789806         +0.13279353         
 C9      -1.8020069          -1.3559489          +0.23151641         
 C10     +0.59266057         +0.79909804         -0.26467309         
 C11     -0.31926811         +0.76240039         -1.3483501          
 C12     +1.2754569          +1.1481938          -0.81227658         
 C13     -0.73049084         -0.6065981          +0.46319149         
 C14     +0.15951928         -0.77445122         +0.45006866         
 C15     -0.18997294         -1.2875145          -0.44963226         
 C16     +1.3332003          +0.0404243          +0.25890228         
 C17     +0.3458559          +0.34848728         +0.27608656         
 C18     +0.052067952        +1.2976207          +0.47327579         
 C19     -0.81045754         -0.26651906         +0.1631029          
 C20     -0.074383243        -0.70918581         +0.42242154         
 C21     -0.15855739         -0.6714804          -0.3356247          
 C22     +0.67333314         +0.1321754          -0.1295889          
 C23     -0.31072535         +0.028505123        -0.36467698         
 C24     -0.41648062         +1.0698657          -1.2469678          
 C25     -0.017309217        -0.22929803         -0.16403247         
 C26     -0.26835148         +0.54739773         +0.36572542         
 C27     -0.028151459        -0.14766474         +0.070032968        
 C28     -0.17987565         -0.059070643        -0.33020465         
 C29     +0.052310901        -0.2407108          -0.4568875          
 C30     -0.45299001         -0.12305772         +0.17119226         
 C31     +0.077496999        -0.12431563         +0.49253621         
 C32     +0.1404457          +0.66457491         -0.069761589        
 C33     +0.21205486         +0.39707179         -0.12706009         
 C34     -0.12456134         -0.25083207         -0.7336975          
 C35     -0.51204303         +0.46535692         -1.1812478          
 C36     -0.27125511         -0.17829433         -0.31977945         


 ><><><><><><><><><><><><><><><><><><><><><><><><><><><><><><><><><><><

 TOTAL-STRESS (KBAR)

 ><><><><><><><><><><><><><><><><><><><><><><><><><><><><><><><><><><><

 -111.351474            -18.414685             -9.648297              
 -18.414685             +49.171626             -16.208132             
 -9.648297              -16.208132             -27.043447             
 TOTAL-PRESSURE: -29.741098 KBAR


 ------------------------------------------------------------------------------------------------
 Energy              Potential           Kinetic             Temperature         Pressure (KBAR)     
 -347.27605          -347.37899          +0.10294432         +305.23197          -25.903738          
 ------------------------------------------------------------------------------------------------

output Pressure for check!
Virtual Pressure is -25.903738 Kbar 
Virial Term is -29.741098 Kbar 
Kenetic Term is +3.8373606 Kbar 


 ><><><><><><><><><><><><><><><><><><><><><><><><><><><><><><><><><><><

 MD STRESS (KBAR)

 ><><><><><><><><><><><><><><><><><><><><><><><><><><><><><><><><><><><

-107.61637     -18.390766     -9.997415      
-18.390766     +53.135573     -16.6326       
-9.997415      -16.6326       -23.230413     




 --------------------------------------------
 !FINAL_ETOT_IS -9452.667265412123 eV
 --------------------------------------------






  |CLASS_NAME---------|NAME---------------|TIME(Sec)-----|CALLS----|AVG------|PER%-------
                       total               +12482         27        +4.6e+02  +1e+02    %
   Driver              driver_line         +12482         1         +1.2e+04  +1e+02    %
   PW_Basis            setup_struc_factor  +1.2497        11        +0.11     +0.01     %
   ORB_control         read_orb_first      +0.22947       1         +0.23     +0.0018   %
   LCAO_Orbitals       Read_Orbitals       +0.22947       1         +0.23     +0.0018   %
   NOrbital_Lm         extra_uniform       +0.12445       16        +0.0078   +0.001    %
   Mathzone_Add1       Uni_Deriv_Phi       +0.10863       16        +0.0068   +0.00087  %
   ORB_control         set_orb_tables      +6.9372        1         +6.9      +0.056    %
   ORB_gen_tables      gen_tables          +6.9372        1         +6.9      +0.056    %
   ORB_table_phi       init_Table          +5.1118        1         +5.1      +0.041    %
   ORB_table_phi       cal_ST_Phi12_R      +5.0744        558       +0.0091   +0.041    %
   ORB_table_beta      init_Table_Beta     +1.3397        1         +1.3      +0.011    %
   ORB_table_beta      VNL_PhiBeta_R       +1.3299        168       +0.0079   +0.011    %
   ppcell_vl           init_vloc           +0.27086       1         +0.27     +0.0022   %
   Run_MD              md_line             +12474         1         +1.2e+04  +1e+02    %
   Langevin            setup               +1579.1        1         +1.6e+03  +13       %
   MD_func             force_stress        +12474         11        +1.1e+03  +1e+02    %
   ESolver_KS_LCAO     Run                 +11498         11        +1e+03    +92       %
   ESolver_KS_LCAO     beforescf           +28.068        11        +2.6      +0.22     %
   ESolver_KS_LCAO     beforesolver        +9.9165        11        +0.9      +0.079    %
   ESolver_KS_LCAO     set_matrix_grid     +5.7677        11        +0.52     +0.046    %
   atom_arrange        search              +0.10126       11        +0.0092   +0.00081  %
   Grid_Technique      init                +2.9325        11        +0.27     +0.023    %
   Grid_BigCell        grid_expansion_index+0.96503       22        +0.044    +0.0077   %
   Record_adj          for_2d              +2.3783        11        +0.22     +0.019    %
   Grid_Driver         Find_atom           +15.657        672552    +2.3e-05  +0.13     %
   Charge              atomic_rho          +16.003        21        +0.76     +0.13     %
   PW_Basis            recip2real          +3.5886        740       +0.0048   +0.029    %
   PW_Basis            gathers_scatterp    +2.7012        740       +0.0037   +0.022    %
   Potential           init_pot            +0.87125       11        +0.079    +0.007    %
   Potential           update_from_charge  +9.7112        135       +0.072    +0.078    %
   Potential           cal_v_eff           +9.6646        135       +0.072    +0.077    %
   H_Hartree_pw        v_hartree           +0.97008       135       +0.0072   +0.0078   %
   PW_Basis            real2recip          +2.9313        1124      +0.0026   +0.023    %
   PW_Basis            gatherp_scatters    +1.3991        1124      +0.0012   +0.011    %
   PotXC               cal_v_eff           +8.6096        135       +0.064    +0.069    %
   XC_Functional       v_xc                +8.5649        135       +0.063    +0.069    %
   HSolverLCAO         solve               +11449         124       +92       +92       %
   HamiltLCAO          updateHk            +4138.2        4464      +0.93     +33       %
   OperatorLCAO        init                +3458.5        8928      +0.39     +28       %
   Veff                contributeHk        +3456          4464      +0.77     +28       %
   Gint_interface      cal_gint            +5014.9        259       +19       +40       %
   Gint_interface      cal_gint_vlocal     +2396.9        124       +19       +19       %
   Gint_k              folding_vl_k        +1059          4464      +0.24     +8.5      %
   Gint_k              Distri              +813.7         4464      +0.18     +6.5      %
   Overlap             contributeHR        +4.7296        11        +0.43     +0.038    %
   LCAO_gen_fixedH     calculate_S_no      +4.7296        11        +0.43     +0.038    %
   Ekinetic<OperatorLCAO>contributeHR        +4.8031        11        +0.44     +0.038    %
   Nonlocal<OperatorLCAO>contributeHR        +45.342        11        +4.1      +0.36     %
   LCAO_gen_fixedH     build_Nonlocal_mu_new+145.84        22        +6.6      +1.2      %
   ORB_gen_tables      snap_psibeta_half   +3.3555        1195314   +2.8e-06  +0.027    %
   OperatorLCAO        folding_fixed       +624.77        4464      +0.14     +5        %
   LCAO_nnr            folding_fixedH      +617.15        4464      +0.14     +4.9      %
   HSolverLCAO         hamiltSolvePsiK     +1832          4464      +0.41     +15       %
   DiagoElpa           elpa_solve          +1820.8        4464      +0.41     +15       %
   ElecStateLCAO       psiToRho            +5479.2        124       +44       +44       %
   elecstate           cal_dm              +148.29        135       +1.1      +1.2      %
   psiMulPsiMpi        pdgemm              +143.26        4860      +0.029    +1.1      %
    Local_Orbital_wfc  wfc_2d_to_grid      +27.588        4464      +0.0062   +0.22     %
   LCAO_Charge         cal_dk_k            +3033          124       +24       +24       %
   Record_adj          for_grid            +0.65974       124       +0.0053   +0.0053   %
   Gint_interface      cal_gint_rho        +2101.9        124       +17       +17       %
   Charge              mix_rho             +1.4427        113       +0.013    +0.012    %
   Force_Stress_LCAO   getForceStress      +976.02        11        +89       +7.8      %
   Forces              cal_force_loc       +0.94677       11        +0.086    +0.0076   %
   Forces              cal_force_ew        +0.91004       11        +0.083    +0.0073   %
   Forces              cal_force_scc       +8.034         11        +0.73     +0.064    %
   Stress_Func         stress_loc          +6.3674        11        +0.58     +0.051    %
   Stress_Func         stress_ewa          +0.40493       11        +0.037    +0.0032   %
   Stress_Func         stress_gga          +0.41996       11        +0.038    +0.0034   %
   Force_LCAO_k        ftable_k            +958.87        11        +87       +7.7      %
   Force_LCAO_k        allocate_k          +131.42        11        +12       +1.1      %
   Force_LCAO_k        cal_foverlap_k      +25.082        11        +2.3      +0.2      %
   Force_LCAO_k        cal_edm_2d          +24.124        11        +2.2      +0.19     %
   Local_Orbital_Chargecal_dm_R            +12.113        22        +0.55     +0.097    %
   Force_LCAO_k        cal_ftvnl_dphi_k    +0.3174        11        +0.029    +0.0025   %
   Force_LCAO_k        cal_fvl_dphi_k      +516.08        11        +47       +4.1      %
   Gint_interface      cal_gint_force      +516.08        11        +47       +4.1      %
   Force_LCAO_k        cal_fvnl_dbeta_k_new+264.61        11        +24       +2.1      %
 ----------------------------------------------------------------------------------------

 CLASS_NAME---------|NAME---------------|MEMORY(MB)--------
                                         +2.719e+04
 ORB_table_phi       Jl(x)               +138.2         
 allocate_pvpR       pvpR_reduced        +86.99         
 LocalOrbital_Charge Density_Matrix      +86.99         
 stress_lo           dSR                 +72.73         
 force_lo            dS                  +36.37         
 force_lo            dTVNL               +36.37         
 Force_LCAO_k        dm2d                +12.12         
 ORB_table_phi       Table_SR&TR         +10.58         
 Grid_Meshcell       index2normal        +8.308         
 Grid_Meshcell       index2ucell         +8.308         
 Charge_Mixing       Rrho                +7.031         
 Charge_Mixing       dRrho               +6.152         
 Charge_Mixing       drho                +6.152         
 LocalOrbital_Coef   wfc_k_grid          +4.181         
 init_meshball       meshball_pos        +3.534         
 atoms_on_grid       which_atom          +2.664         
 atoms_on_grid       which_bigcell       +2.664         
 atoms_on_grid       which_unitcell      +2.664         
 ORB_table_beta      Table_NR            +2.045         
 PW_Basis            struc_fac           +1.356         
 ----------------------------------------------------------

 Start  Time  : Mon May 22 14:16:28 2023
 Finish Time  : Mon May 22 17:44:31 2023
 Total  Time  : 3 h 28 mins 3 secs 
