3.128502853868872080e+01 -1.576880382201762697e-06 -1.619996283282001169e-10 -1.576880382201762697e-06 3.128501886475168448e+01 -6.493831255207338206e-10 -1.619996283282001169e-10 -6.493831255207338206e-10 3.056661029118988893e+01
3.131439415845959218e+01 3.219970313100570941e-02 -3.858127061131555458e-02 3.219970313100570941e-02 3.123807010741584733e+01 -6.263286568448087933e-03 -3.858127061131555458e-02 -6.263286568448087933e-03 3.058769983839450646e+01
3.131074620549945919e+01 2.871592362015614741e-01 -2.520559062565836950e-01 2.871592362015614741e-01 3.111515468701954390e+01 -1.156611003810941452e-01 -2.520559062565836950e-01 -1.156611003810941452e-01 3.075064120002349810e+01
3.186945802237839942e+01 6.446832019142694215e-01 -4.949452573202332561e-01 6.446832019142694215e-01 3.076129878849435784e+01 2.965524898283870836e-02 -4.949452573202332561e-01 2.965524898283870836e-02 3.065127286173954602e+01
3.168426431136874655e+01 9.578331743713027757e-01 -3.575877789858411537e-01 9.578331743713027757e-01 3.118297512411630379e+01 7.010688823732073860e-02 -3.575877789858411537e-01 7.010688823732073860e-02 3.053934083461108173e+01
3.210561679603384988e+01 1.333823174272915191e+00 -4.112007737739304947e-01 1.333823174272915191e+00 3.042374813482305385e+01 -6.374230831819061027e-02 -4.112007737739304947e-01 -6.374230831819061027e-02 3.102966419669660425e+01
3.195891867149916621e+01 1.550198330752973863e+00 -1.905808517777648481e-01 1.550198330752973863e+00 3.065124171597577174e+01 -4.526582183757409117e-02 -1.905808517777648481e-01 -4.526582183757409117e-02 3.105319157464046853e+01
3.171375441762169345e+01 2.398397917238099808e+00 2.187631581616321652e-01 2.398397917238099808e+00 3.116420357507803018e+01 -2.769966644223792462e-01 2.187631581616321652e-01 -2.769966644223792462e-01 3.118178028486144271e+01
3.105645271914727346e+01 2.714323554520685189e+00 4.838608338214175908e-01 2.714323554520685189e+00 3.137046539474564000e+01 -7.204077428576078912e-01 4.838608338214175908e-01 -7.204077428576078912e-01 3.185020828896275091e+01
3.089015945780492345e+01 2.514636741493120553e+00 2.089459624809849869e-01 2.514636741493120553e+00 3.133098256492798228e+01 -4.225300322065659309e-01 2.089459624809849869e-01 -4.225300322065659309e-01 3.220571204775344398e+01
2.984251685787165798e+01 2.170633879014813417e+00 4.526481584042058581e-01 2.170633879014813417e+00 3.213521838297165090e+01 -6.167741318675227236e-01 4.526481584042058581e-01 -6.167741318675227236e-01 3.279284252076399753e+01
-1.048973090822203069e+01 -1.499453783699664436e-02 1.325203934375907089e+01 -1.499453783699664436e-02 1.188876224804372157e+02 -4.878237924518648683e+00 1.325203934375907089e+01 -4.878237924518648683e+00 3.542870951523854472e+01
-1.039898129861232867e+01 1.458640616582941862e-01 1.323777405717587108e+01 1.458640616582941862e-01 1.179741299277225863e+02 -4.828184312255754840e+00 1.323777405717587108e+01 -4.828184312255754840e+00 3.539177245208108502e+01
-1.042322343166410370e+01 5.528192864174370502e-01 1.307686209908317387e+01 5.528192864174370502e-01 1.163471876183516116e+02 -4.881434948660356099e+00 1.307686209908317387e+01 -4.881434948660356099e+00 3.545578738020174825e+01
-9.978640632479546468e+00 1.088045234387334803e+00 1.291287665718833111e+01 1.088045234387334803e+00 1.140027298925888317e+02 -4.454583303407597228e+00 1.291287665718833111e+01 -4.454583303407597228e+00 3.515975773342918842e+01
-1.034382534054412162e+01 1.425265556347516060e+00 1.301604698732875853e+01 1.425265556347516060e+00 1.134178779206917795e+02 -4.437960454297185109e+00 1.301604698732875853e+01 -4.437960454297185109e+00 3.498539707008957578e+01
-1.001687366293622716e+01 1.944478921056691290e+00 1.292234620178553151e+01 1.944478921056691290e+00 1.109171933964556871e+02 -4.373126795828831348e+00 1.292234620178553151e+01 -4.373126795828831348e+00 3.532695340306570841e+01
-1.005644022514788816e+01 2.364868452642678420e+00 1.307177504030580373e+01 2.364868452642678420e+00 1.098810617958946807e+02 -4.282571538979620840e+00 1.307177504030580373e+01 -4.282571538979620840e+00 3.526243255770658891e+01
-1.037424821630594707e+01 3.273264046445087949e+00 1.342371254746483444e+01 3.273264046445087949e+00 1.094254290769300155e+02 -4.762314876776536643e+00 1.342371254746483444e+01 -4.762314876776536643e+00 3.530103959207603737e+01
-1.089292415542553094e+01 3.644143588663803168e+00 1.365269984567947681e+01 3.644143588663803168e+00 1.086531012477493476e+02 -4.891338328278346026e+00 1.365269984567947681e+01 -4.891338328278346026e+00 3.605685981676680996e+01
-1.114682567125555757e+01 3.548265337629568972e+00 1.352623587875104860e+01 3.548265337629568972e+00 1.072719396465750776e+02 -4.118976489382828454e+00 1.352623587875104860e+01 -4.118976489382828454e+00 3.629929244789634879e+01
-1.189630937278342770e+01 3.435128576862124028e+00 1.377292813629323476e+01 3.435128576862124028e+00 1.070383931453927460e+02 -4.466605838292880826e+00 1.377292813629323476e+01 -4.466605838292880826e+00 3.694050851436863070e+01
6.121690699409122516e+01 1.440405749309538486e+01 1.950091560042409000e+01 1.440405749309538486e+01 -1.104231615647190878e+01 7.022771793190383249e+00 1.950091560042409000e+01 7.022771793190383249e+00 -1.336317516319462273e+00
6.097085771638513307e+01 1.427738349066100554e+01 1.941244235185532219e+01 1.427738349066100554e+01 -1.113294753470835019e+01 7.008236065978098672e+00 1.941244235185532219e+01 7.008236065978098672e+00 -1.336288332132534507e+00
6.060673935218563457e+01 1.432407902512878017e+01 1.911420925482308419e+01 1.432407902512878017e+01 -1.142389684859967680e+01 6.927850492305211993e+00 1.911420925482308419e+01 6.927850492305211993e+00 -1.487239744483747073e+00
6.084327703550647470e+01 1.455393796040949539e+01 1.885581276737305956e+01 1.455393796040949539e+01 -1.162150269016143866e+01 6.999688774484926768e+00 1.885581276737305956e+01 6.999688774484926768e+00 -1.393966948417907359e+00
6.036324210229215481e+01 1.471436262603632983e+01 1.893290366426103688e+01 1.471436262603632983e+01 -1.151272660428979577e+01 7.110523869010185294e+00 1.893290366426103688e+01 7.110523869010185294e+00 -1.837530736749136251e+00
6.050193913446229743e+01 1.495356414410401769e+01 1.885977613899571637e+01 1.495356414410401769e+01 -1.209349950576159394e+01 6.959342006928143753e+00 1.885977613899571637e+01 6.959342006928143753e+00 -1.613457365928766540e+00
5.997856285720742875e+01 1.489754170525714017e+01 1.898516058016605612e+01 1.489754170525714017e+01 -1.197768269864643287e+01 6.975983544937369274e+00 1.898516058016605612e+01 6.975983544937369274e+00 -1.572114615931954784e+00
5.958292148017400791e+01 1.572454033294640574e+01 1.942166548520168590e+01 1.572454033294640574e+01 -1.153266580532061170e+01 7.006877357910721749e+00 1.942166548520168590e+01 7.006877357910721749e+00 -1.229392588952824550e+00
5.832579398755643751e+01 1.572365562450877796e+01 1.945740720463038542e+01 1.572365562450877796e+01 -1.163867849968207757e+01 6.474733484226263158e+00 1.945740720463038542e+01 6.474733484226263158e+00 -1.107461990140503838e+00
5.773426517522072743e+01 1.525495254735178641e+01 1.903998810329147773e+01 1.525495254735178641e+01 -1.176300946569830863e+01 6.533368937786454111e+00 1.903998810329147773e+01 6.533368937786454111e+00 -6.877109936217559172e-01
5.613178592932667499e+01 1.456910104111027771e+01 1.915903348476440016e+01 1.456910104111027771e+01 -1.111113666663789878e+01 6.416593517159853377e+00 1.915903348476440016e+01 6.416593517159853377e+00 -1.915915807605719223e-01
1.111453420460316579e+02 3.658735448716052474e+01 1.261251194345644588e+00 3.658735448716052474e+01 9.593149450869874784e+01 -1.668229900396044130e+01 1.261251194345644588e+00 -1.668229900396044130e+01 1.151319650285556691e+02
1.107215674010038242e+02 3.613645394193952143e+01 1.199638522463250423e+00 3.613645394193952143e+01 9.565690219948277218e+01 -1.676719012887388871e+01 1.199638522463250423e+00 -1.676719012887388871e+01 1.144885747723491107e+02
1.102359337238942629e+02 3.564574768090469092e+01 9.718065894743619371e-01 3.564574768090469092e+01 9.535497113760219179e+01 -1.696835551722517721e+01 9.718065894743619371e-01 -1.696835551722517721e+01 1.139013369104653179e+02
1.105143876482304819e+02 3.544529469649096853e+01 6.990016548359297976e-01 3.544529469649096853e+01 9.453126187000070502e+01 -1.684708619529389750e+01 6.990016548359297976e-01 -1.684708619529389750e+01 1.123660523587609674e+02
1.100192302695926543e+02 3.521900493341293270e+01 8.477716753243186298e-01 3.521900493341293270e+01 9.500146235839778797e+01 -1.689103593046539231e+01 8.477716753243186298e-01 -1.689103593046539231e+01 1.116295627556753516e+02
1.101193359601252553e+02 3.510050464260588399e+01 8.340494972442009658e-01 3.510050464260588399e+01 9.383352169739222859e+01 -1.696044636506499614e+01 8.340494972442009658e-01 -1.696044636506499614e+01 1.117024518247140463e+02
1.092338725825174066e+02 3.445929505347639576e+01 1.192423366667183959e+00 3.445929505347639576e+01 9.368841415500550340e+01 -1.702417824032373517e+01 1.192423366667183959e+00 -1.702417824032373517e+01 1.105174610221294387e+02
1.086880510532068769e+02 3.493486527096383298e+01 1.710728961216747557e+00 3.493486527096383298e+01 9.425603772512316425e+01 -1.736098457013766705e+01 1.710728961216747557e+00 -1.736098457013766705e+01 1.093873222808054209e+02
1.072339672765722156e+02 3.449242684319824548e+01 1.760702386959020815e+00 3.449242684319824548e+01 9.430538131471702457e+01 -1.792313931228157386e+01 1.760702386959020815e+00 -1.792313931228157386e+01 1.100856686855613304e+02
1.066053220754139375e+02 3.363551858889815804e+01 1.339618030056460629e+00 3.363551858889815804e+01 9.385612020808382283e+01 -1.777104448391688507e+01 1.339618030056460629e+00 -1.777104448391688507e+01 1.095181535941349580e+02
1.045919936448440666e+02 3.226859156469141254e+01 1.648385427032694528e+00 3.226859156469141254e+01 9.425746076223700243e+01 -1.817893959646591640e+01 1.648385427032694528e+00 -1.817893959646591640e+01 1.093373974978813976e+02
-2.235319156117440365e+00 -2.632272610043343164e+01 3.412390008961893262e+00 -2.632272610043343164e+01 -2.210210425327765194e+01 -1.029169001049712096e+00 3.412390008961893262e+00 -1.029169001049712096e+00 9.016289012111211321e+01
-2.226426184056295110e+00 -2.629626316339416192e+01 3.401512840473291277e+00 -2.629626316339416192e+01 -2.211672592590136333e+01 -1.008827818075030303e+00 3.401512840473291277e+00 -1.008827818075030303e+00 8.954362457139225739e+01
-2.428732609154661493e+00 -2.612712041844527633e+01 3.196293941720940612e+00 -2.612712041844527633e+01 -2.231110471460045730e+01 -1.033065232144066758e+00 3.196293941720940612e+00 -1.033065232144066758e+00 8.885660024863258855e+01
-2.215609935665980412e+00 -2.594315615232420313e+01 2.971479940744826909e+00 -2.594315615232420313e+01 -2.259792857101831487e+01 -8.728492203042909070e-01 2.971479940744826909e+00 -8.728492203042909070e-01 8.724477435387808555e+01
-2.708761982368873777e+00 -2.574005615409537739e+01 3.186783592165819634e+00 -2.574005615409537739e+01 -2.247495901395662088e+01 -7.438216115798429451e-01 3.186783592165819634e+00 -7.438216115798429451e-01 8.636147826373442626e+01
-2.613749393253762321e+00 -2.553338055412292107e+01 3.188275893617045220e+00 -2.553338055412292107e+01 -2.309940514482274310e+01 -9.297409600870090163e-01 3.188275893617045220e+00 -9.297409600870090163e-01 8.625951522700010798e+01
-2.714366489544970396e+00 -2.527846701031312548e+01 3.417949742929800028e+00 -2.527846701031312548e+01 -2.284093453417282760e+01 -9.382597837839434796e-01 3.417949742929800028e+00 -9.382597837839434796e-01 8.521563535063188510e+01
-3.199623043496394370e+00 -2.452232043833655695e+01 3.739168046826691238e+00 -2.452232043833655695e+01 -2.247322629297948993e+01 -1.104793024269517421e+00 3.739168046826691238e+00 -1.104793024269517421e+00 8.395369966157429076e+01
-3.894546228809560695e+00 -2.410687437730270588e+01 4.109259326031051707e+00 -2.410687437730270588e+01 -2.243209529115370771e+01 -1.612624270455596864e+00 4.109259326031051707e+00 -1.612624270455596864e+00 8.449713283567231770e+01
-4.247322201364452710e+00 -2.433363979590826887e+01 3.982396592479264363e+00 -2.433363979590826887e+01 -2.242542530088576314e+01 -1.315561978051728920e+00 3.982396592479264363e+00 -1.315561978051728920e+00 8.379952674937111112e+01
-5.060055393195827200e+00 -2.440793609698737754e+01 4.260862011814722905e+00 -2.440793609698737754e+01 -2.154322880154809283e+01 -1.402659945440633438e+00 4.260862011814722905e+00 -1.402659945440633438e+00 8.362832470373953697e+01
-1.670410520188489656e+01 -1.231122880115699125e+01 1.359057640803055245e+00 -1.231122880115699125e+01 6.669359924713957355e+01 -2.306983747829404763e+01 1.359057640803055245e+00 -2.306983747829404763e+01 1.381929124778214657e+01
-1.670883523817805383e+01 -1.225368578208823678e+01 1.315132215023236073e+00 -1.225368578208823678e+01 6.623854059609369926e+01 -2.301666673378466044e+01 1.315132215023236073e+00 -2.301666673378466044e+01 1.382938045065399635e+01
-1.697430804211670363e+01 -1.206811296498985442e+01 1.061108193231889096e+00 -1.206811296498985442e+01 6.542337256054287309e+01 -2.303368634445492447e+01 1.061108193231889096e+00 -2.303368634445492447e+01 1.378966040416720240e+01
-1.681168598987924767e+01 -1.182574160773687488e+01 7.660007676305895519e-01 -1.182574160773687488e+01 6.391025123999391155e+01 -2.269149705355493296e+01 7.660007676305895519e-01 -2.269149705355493296e+01 1.365839233888916304e+01
-1.744396784758957253e+01 -1.164108211352137978e+01 8.124902332416694684e-01 -1.164108211352137978e+01 6.379137158062668789e+01 -2.266222096629506311e+01 8.124902332416694684e-01 -2.266222096629506311e+01 1.330281875793730251e+01
-1.738712951720233235e+01 -1.137511939077352352e+01 6.398018012861282910e-01 -1.137511939077352352e+01 6.208360774610967070e+01 -2.257780782468553582e+01 6.398018012861282910e-01 -2.257780782468553582e+01 1.355105330016068876e+01
-1.754749592561103810e+01 -1.110850926107301362e+01 7.140651946592099231e-01 -1.110850926107301362e+01 6.165288214106187326e+01 -2.248385229509115746e+01 7.140651946592099231e-01 -2.248385229509115746e+01 1.365169145004351847e+01
-1.812864358397082398e+01 -1.037924470011484779e+01 8.699907802718113148e-01 -1.037924470011484779e+01 6.171550264304717359e+01 -2.290255383778402631e+01 8.699907802718113148e-01 -2.290255383778402631e+01 1.388788838767179890e+01
-1.878227380871332741e+01 -1.005196352270352200e+01 1.132782340710042579e+00 -1.005196352270352200e+01 6.130370086298044896e+01 -2.315464564856287666e+01 1.132782340710042579e+00 -2.315464564856287666e+01 1.430617989000697143e+01
-1.919064627843638959e+01 -1.028254795682971334e+01 1.024661510609597981e+00 -1.028254795682971334e+01 6.043476709779493916e+01 -2.252168554533162492e+01 1.024661510609597981e+00 -2.252168554533162492e+01 1.461772150961887107e+01
-2.003434736916995718e+01 -1.040416449727471893e+01 1.283637356483497971e+00 -1.040416449727471893e+01 6.078132653577589650e+01 -2.282483304081984343e+01 1.283637356483497971e+00 -2.282483304081984343e+01 1.524196701350249405e+01
5.469245457829944002e+01 2.552170190873617983e+01 1.106374104666332414e+01 2.552170190873617983e+01 7.248954781827858085e+01 -1.824851010455818923e+01 1.106374104666332414e+01 -1.824851010455818923e+01 3.566114690631523132e+01
5.462735913242068619e+01 2.547132356016484422e+01 1.100492157870267640e+01 2.547132356016484422e+01 7.231778134023426219e+01 -1.824808375135374305e+01 1.100492157870267640e+01 -1.824808375135374305e+01 3.569612888712772047e+01
5.461108018792236862e+01 2.560629887897295731e+01 1.073588601605648307e+01 2.560629887897295731e+01 7.212953294123077796e+01 -1.834125546209308766e+01 1.073588601605648307e+01 -1.834125546209308766e+01 3.587327948542981204e+01
5.523995927143204199e+01 2.596431449122496460e+01 1.049199487628786898e+01 2.596431449122496460e+01 7.141607672733616141e+01 -1.809893780136775021e+01 1.049199487628786898e+01 -1.809893780136775021e+01 3.581153357674890714e+01
5.505844760404936267e+01 2.620211988390595081e+01 1.055990868345729261e+01 2.620211988390595081e+01 7.185382402117664924e+01 -1.807042947682869283e+01 1.055990868345729261e+01 -1.807042947682869283e+01 3.572448407958781758e+01
5.552779697827426730e+01 2.656883211608221274e+01 1.045396074925750973e+01 2.656883211608221274e+01 7.080896523177096924e+01 -1.807922161964562235e+01 1.045396074925750973e+01 -1.807922161964562235e+01 3.629030046356544403e+01
5.523082210581800666e+01 2.658826098393084791e+01 1.063672687074959100e+01 2.658826098393084791e+01 7.085377443132331621e+01 -1.801799554194319342e+01 1.063672687074959100e+01 -1.801799554194319342e+01 3.633433787135508908e+01
5.512612347926085477e+01 2.744223457672699595e+01 1.105223802064435645e+01 2.744223457672699595e+01 7.150634770291073039e+01 -1.824043324609617045e+01 1.105223802064435645e+01 -1.824043324609617045e+01 3.655387166062588022e+01
5.424639953369329959e+01 2.751063010238148010e+01 1.110750627580969585e+01 2.751063010238148010e+01 7.154891104396935475e+01 -1.864324138346927739e+01 1.110750627580969585e+01 -1.864324138346927739e+01 3.721453340095820295e+01
5.393455127224648038e+01 2.714201588819054223e+01 1.077048906579331877e+01 2.714201588819054223e+01 7.113285680904465380e+01 -1.828912664053748216e+01 1.077048906579331877e+01 -1.828912664053748216e+01 3.757777626410789651e+01
5.256447511793887628e+01 2.650707285516223166e+01 1.099850365123463014e+01 2.650707285516223166e+01 7.181651855188741251e+01 -1.859172330827319897e+01 1.099850365123463014e+01 -1.859172330827319897e+01 3.823576327454142643e+01
1.276728396392070266e+02 3.515687848927415615e+01 1.722809202257812800e+01 3.515687848927415615e+01 8.143946517150645548e+00 -6.634940368405727540e+00 1.722809202257812800e+01 -6.634940368405727540e+00 7.593813763927390426e+01
1.267220117304146925e+02 3.436791780139230212e+01 1.704006972092126659e+01 3.436791780139230212e+01 7.778749056094988568e+00 -6.821515748780953459e+00 1.704006972092126659e+01 -6.821515748780953459e+00 7.568571499602636266e+01
1.252810623104613086e+02 3.329870062026723332e+01 1.654698707168029514e+01 3.329870062026723332e+01 7.153833274971615808e+00 -7.172202579918998566e+00 1.654698707168029514e+01 -7.172202579918998566e+00 7.562438598730628314e+01
1.246040563908177035e+02 3.260634251928239991e+01 1.613046572811540358e+01 3.260634251928239991e+01 6.689373462602250520e+00 -7.328006112299801700e+00 1.613046572811540358e+01 -7.328006112299801700e+00 7.498095751793448471e+01
1.233201705807149295e+02 3.191524062801433104e+01 1.607031633345535582e+01 3.191524062801433104e+01 6.546214309581051438e+00 -7.486952863457259078e+00 1.607031633345535582e+01 -7.486952863457259078e+00 7.471923424134915592e+01
1.226801330893334097e+02 3.137446366523907315e+01 1.590661984890913949e+01 3.137446366523907315e+01 5.751927542149743999e+00 -7.842884853380409638e+00 1.590661984890913949e+01 -7.842884853380409638e+00 7.524815109277761849e+01
1.212249853176369498e+02 3.030211840086647967e+01 1.605599036297265769e+01 3.030211840086647967e+01 5.527715388462604906e+00 -8.037859266976351336e+00 1.605599036297265769e+01 -8.037859266976351336e+00 7.473828215314067336e+01
1.201153918755764636e+02 3.053728557759594153e+01 1.650702120275251517e+01 3.053728557759594153e+01 5.973349679301396264e+00 -8.098572702017881042e+00 1.650702120275251517e+01 -8.098572702017881042e+00 7.429799391645468631e+01
1.178826861631665395e+02 2.964633164453030645e+01 1.629390116221064133e+01 2.964633164453030645e+01 5.564046032636356109e+00 -8.940994691099495739e+00 1.629390116221064133e+01 -8.940994691099495739e+00 7.497476788705839112e+01
1.166381562637360645e+02 2.841190111854333367e+01 1.575455360345741873e+01 2.841190111854333367e+01 5.140561138728823920e+00 -9.194670091066226902e+00 1.575455360345741873e+01 -9.194670091066226902e+00 7.496477802909768684e+01
1.141676279026478511e+02 2.681566884965642927e+01 1.591078935129969985e+01 2.681566884965642927e+01 5.426431642976176306e+00 -9.519149138826049850e+00 1.591078935129969985e+01 -9.519149138826049850e+00 7.518192120559869807e+01
7.968171068945795632e+00 -1.904925789124302327e+01 4.706218574268269395e-01 -1.904925789124302327e+01 -2.067544268791484185e+01 8.238972542848095770e+00 4.706218574268269395e-01 8.238972542848095770e+00 1.244825599268486229e+02
8.056246579247963169e+00 -1.902588953572345432e+01 4.274205847810236825e-01 -1.902588953572345432e+01 -2.067521464461776048e+01 8.380697191996869577e+00 4.274205847810236825e-01 8.380697191996869577e+00 1.231681845750207174e+02
8.047707010799490135e+00 -1.883959011965393060e+01 1.866012807982366517e-01 -1.883959011965393060e+01 -2.080679147368399029e+01 8.515268426699018178e+00 1.866012807982366517e-01 8.515268426699018178e+00 1.214128356682877836e+02
8.510801092879123786e+00 -1.860666606720382532e+01 -1.463760720597209741e-01 -1.860666606720382532e+01 -2.098243646349806824e+01 8.899138912044692873e+00 -1.463760720597209741e-01 8.899138912044692873e+00 1.185474544364781906e+02
8.237140214396685423e+00 -1.835932129528191226e+01 6.715638066767638803e-02 -1.835932129528191226e+01 -2.078067846773252469e+01 9.200007326768572469e+00 6.715638066767638803e-02 9.200007326768572469e+00 1.168521160238579739e+02
8.525035522099406293e+00 -1.809940278121786150e+01 7.487506291938143821e-02 -1.809940278121786150e+01 -2.128436957401090623e+01 9.061478037137627339e+00 7.487506291938143821e-02 9.061478037137627339e+00 1.159146956924367089e+02
8.569980450559604890e+00 -1.784415425772277075e+01 3.130268298985163233e-01 -1.784415425772277075e+01 -2.095622764350802569e+01 9.297368276028967315e+00 3.130268298985163233e-01 9.297368276028967315e+00 1.138459780749994081e+02
8.318319201959820219e+00 -1.703520290987965069e+01 6.675182327774438207e-01 -1.703520290987965069e+01 -2.055907512818829375e+01 9.385813479366204248e+00 6.675182327774438207e-01 9.385813479366204248e+00 1.116084612058438665e+02
7.775417306681410956e+00 -1.660812033029760570e+01 1.069422726900261633e+00 -1.660812033029760570e+01 -2.041764595753397771e+01 8.917208931789962989e+00 1.069422726900261633e+00 8.917208931789962989e+00 1.115890551300015829e+02
7.576450105963642656e+00 -1.684558705178168481e+01 8.577306104222716110e-01 -1.684558705178168481e+01 -2.036284508811671401e+01 9.394538630500742116e+00 8.577306104222716110e-01 9.394538630500742116e+00 1.102134679689081764e+02
6.847433468558783431e+00 -1.695772578935898167e+01 1.066635855979627623e+00 -1.695772578935898167e+01 -1.940475676993871801e+01 9.486956761727912024e+00 1.066635855979627623e+00 9.486956761727912024e+00 1.094420592179312877e+02
-1.816640959916100329e+01 2.534059921461948583e+00 1.068623800860934558e+01 2.534059921461948583e+00 6.113619260356429663e+01 -5.067850571156184536e+00 1.068623800860934558e+01 -5.067850571156184536e+00 1.375267281052611850e+02
-1.810282481378583341e+01 2.595332077327915599e+00 1.083852052226315088e+01 2.595332077327915599e+00 6.107479124859311526e+01 -5.051475126177443542e+00 1.083852052226315088e+01 -5.051475126177443542e+00 1.360098239469245982e+02
-1.819736703604932160e+01 2.791374346068802748e+00 1.088631343634133763e+01 2.791374346068802748e+00 6.098965552879354135e+01 -5.123077134219046869e+00 1.088631343634133763e+01 -5.123077134219046869e+00 1.339532212518354299e+02
-1.783569473640255509e+01 3.091445857625427784e+00 1.101480580809116994e+01 3.091445857625427784e+00 6.038452949473706610e+01 -4.843760477461310110e+00 1.101480580809116994e+01 -4.843760477461310110e+00 1.305704587685552553e+02
-1.829559458071989653e+01 3.249493623199302572e+00 1.139848671544048386e+01 3.249493623199302572e+00 6.087075096117230544e+01 -4.719498173231708726e+00 1.139848671544048386e+01 -4.719498173231708726e+00 1.287058617788829622e+02
-1.808775778054340222e+01 3.563259716791824516e+00 1.156401576403602149e+01 3.563259716791824516e+00 5.986473161128660792e+01 -4.844951802740112612e+00 1.156401576403602149e+01 -4.844951802740112612e+00 1.276945271857486119e+02
-1.813864489487966480e+01 3.868823377294357435e+00 1.200819514263620391e+01 3.868823377294357435e+00 6.007975195091271559e+01 -4.809547135750420921e+00 1.200819514263620391e+01 -4.809547135750420921e+00 1.255046404211291531e+02
-1.849215647913679561e+01 4.646032747710376221e+00 1.258000957036493794e+01 4.646032747710376221e+00 6.065000596094535013e+01 -5.132927041517577393e+00 1.258000957036493794e+01 -5.132927041517577393e+00 1.230837604425906591e+02
-1.908035888745298436e+01 4.992540522024577321e+00 1.294617760522918282e+01 4.992540522024577321e+00 6.079673888916457258e+01 -5.448986164553097922e+00 1.294617760522918282e+01 -5.448986164553097922e+00 1.231792642176446719e+02
-1.942671868653296841e+01 4.759376103117006984e+00 1.306314738285433208e+01 4.759376103117006984e+00 6.051339557624120147e+01 -4.889746034033375821e+00 1.306314738285433208e+01 -4.889746034033375821e+00 1.214691990681948681e+02
-2.015560704389920232e+01 4.628188898118304806e+00 1.343211512533356533e+01 4.628188898118304806e+00 6.138012876816613783e+01 -5.118675422841694633e+00 1.343211512533356533e+01 -5.118675422841694633e+00 1.206153344595163475e+02
-1.827794508281263219e+01 -1.993316703810720369e+01 -4.975222822078438356e-01 -1.993316703810720369e+01 1.451294079236228924e+02 -7.499014945309620650e+00 -4.975222822078438356e-01 -7.499014945309620650e+00 1.264285816028859557e+02
-1.810580869640892487e+01 -1.991496932487577354e+01 -5.493736138705114236e-01 -1.991496932487577354e+01 1.433771334856531041e+02 -7.504510608118537540e+00 -5.493736138705114236e-01 -7.504510608118537540e+00 1.253191174420378786e+02
-1.803124451408164575e+01 -1.982252780273352499e+01 -7.741409463339886665e-01 -1.982252780273352499e+01 1.402103877627191935e+02 -7.698885295349275459e+00 -7.741409463339886665e-01 -7.698885295349275459e+00 1.239657871695524420e+02
-1.754315427235967206e+01 -1.967318789627646325e+01 -1.144841325488092476e+00 -1.967318789627646325e+01 1.362648480352031868e+02 -7.317043091483332873e+00 -1.144841325488092476e+00 -7.317043091483332873e+00 1.213393725105544974e+02
-1.789292260245187549e+01 -1.959925230939157359e+01 -1.071944879318308175e+00 -1.959925230939157359e+01 1.345032439977044874e+02 -7.397148052604479496e+00 -1.071944879318308175e+00 -7.397148052604479496e+00 1.199306930287664699e+02
-1.763331777411675816e+01 -1.942106202845394236e+01 -1.198090258659862073e+00 -1.942106202845394236e+01 1.307147938522135178e+02 -7.405555353113364880e+00 -1.198090258659862073e+00 -7.405555353113364880e+00 1.192012263675323283e+02
-1.755267830372998006e+01 -1.921277507740795087e+01 -1.095286739696594180e+00 -1.921277507740795087e+01 1.287249473456578528e+02 -7.391536203696519536e+00 -1.095286739696594180e+00 -7.391536203696519536e+00 1.174202487830799697e+02
-1.792348650725920223e+01 -1.850778795881587158e+01 -9.762020346206456978e-01 -1.850778795881587158e+01 1.272053171518028023e+02 -8.143976622648128938e+00 -9.762020346206456978e-01 -8.143976622648128938e+00 1.155907473413604123e+02
-1.832121970310886283e+01 -1.823411847605813207e+01 -6.422641967967637200e-01 -1.823411847605813207e+01 1.256087679776215396e+02 -8.294663749911730832e+00 -6.422641967967637200e-01 -8.294663749911730832e+00 1.159979425720297144e+02
-1.857414892397609663e+01 -1.860909036797733762e+01 -7.037872310519461827e-01 -1.860909036797733762e+01 1.234729737224553645e+02 -7.470320670294293031e+00 -7.037872310519461827e-01 -7.470320670294293031e+00 1.147023154808783687e+02
-1.908396790162631262e+01 -1.879306399573857789e+01 -4.801369834515357704e-01 -1.879306399573857789e+01 1.224943514375118099e+02 -7.934537476104281062e+00 -4.801369834515357704e-01 -7.934537476104281062e+00 1.142597863556293447e+02
5.536520076450569122e-02 -1.641070393912556782e-06 -9.370603115220042662e-11 -1.641070393912556782e-06 5.534457676484984961e-02 -6.430992594810912942e-10 -9.370603115220042662e-11 -6.430992594810912942e-10 -2.967171194184107241e-01
8.100137820908172304e-02 2.770666051904542224e-02 -3.306242128396310459e-02 2.770666051904542224e-02 1.646687739607464659e-02 -5.378130460843059089e-03 -3.306242128396310459e-02 -5.378130460843059089e-03 -2.800708504908868690e-01
8.236720561226977544e-02 2.442955994375254070e-01 -2.160974810697343651e-01 2.442955994375254070e-01 -8.519924272244824848e-02 -9.932600855292915421e-02 -2.160974810697343651e-01 -9.932600855292915421e-02 -1.494440907352102554e-01
5.619886363959072373e-01 5.495782863639334659e-01 -4.248070486151329095e-01 5.495782863639334659e-01 -3.852736882201138191e-01 2.506460943505021272e-02 -4.248070486151329095e-01 2.506460943505021272e-02 -2.212360646556468802e-01
4.088365688473535320e-01 8.185305998052582188e-01 -3.074915005383834776e-01 8.185305998052582188e-01 -2.475117308135248856e-02 5.975282667167224060e-02 -3.074915005383834776e-01 5.975282667167224060e-02 -3.046334607984453879e-01
7.814673431083185573e-01 1.144306654784144506e+00 -3.536563848468051718e-01 1.144306654784144506e+00 -6.642047919772594566e-01 -5.419539270026148964e-02 -3.536563848468051718e-01 -5.419539270026148964e-02 1.043416767638377790e-01
6.604216752304862270e-01 1.333858865471408750e+00 -1.656210449877129898e-01 1.333858865471408750e+00 -4.661021885109964957e-01 -3.671653818851655648e-02 -1.656210449877129898e-01 -3.671653818851655648e-02 1.324730561988483879e-01
4.698738938975951518e-01 2.056928373581510261e+00 1.856101489294748330e-01 2.056928373581510261e+00 -2.630728367300220333e-02 -2.346415538849939419e-01 1.856101489294748330e-01 -2.346415538849939419e-01 2.657396098110155758e-01
-7.422734420899480823e-02 2.331245821156860298e+00 4.112456117781279619e-01 2.331245821156860298e+00 1.563011669235442325e-01 -6.159425108380358616e-01 4.112456117781279619e-01 -6.159425108380358616e-01 8.311714288779907811e-01
-2.098603246593155058e-01 2.163952188370497076e+00 1.752055447726817983e-01 2.163952188370497076e+00 1.330014189944974112e-01 -3.639377235371540342e-01 1.752055447726817983e-01 -3.639377235371540342e-01 1.129555344232290759e+00